
                                 *****************
                                 * O   R   C   A *
                                 *****************

                                            #,                                       
                                            ###                                      
                                            ####                                     
                                            #####                                    
                                            ######                                   
                                           ########,                                 
                                     ,,################,,,,,                         
                               ,,#################################,,                 
                          ,,##########################################,,             
                       ,#########################################, ''#####,          
                    ,#############################################,,   '####,        
                  ,##################################################,,,,####,       
                ,###########''''           ''''###############################       
              ,#####''   ,,,,##########,,,,          '''####'''          '####       
            ,##' ,,,,###########################,,,                        '##       
           ' ,,###''''                  '''############,,,                           
         ,,##''                                '''############,,,,        ,,,,,,###''
      ,#''                                            '''#######################'''  
     '                                                          ''''####''''         
             ,#######,   #######,   ,#######,      ##                                
            ,#'     '#,  ##    ##  ,#'     '#,    #''#        ######   ,####,        
            ##       ##  ##   ,#'  ##            #'  '#       #        #'  '#        
            ##       ##  #######   ##           ,######,      #####,   #    #        
            '#,     ,#'  ##    ##  '#,     ,#' ,#      #,         ##   #,  ,#        
             '#######'   ##     ##  '#######'  #'      '#     #####' # '####'        



                  #######################################################
                  #                        -***-                        #
                  #          Department of theory and spectroscopy      #
                  #    Directorship and core code : Frank Neese         #
                  #        Max Planck Institute fuer Kohlenforschung    #
                  #                Kaiser Wilhelm Platz 1               #
                  #                 D-45470 Muelheim/Ruhr               #
                  #                      Germany                        #
                  #                                                     #
                  #                  All rights reserved                #
                  #                        -***-                        #
                  #######################################################



                         Program Version 5.0.4 -  RELEASE  -

 With contributions from (in alphabetic order):
   Daniel Aravena         : Magnetic Suceptibility
   Michael Atanasov       : Ab Initio Ligand Field Theory (pilot matlab implementation)
   Alexander A. Auer      : GIAO ZORA, VPT2 properties, NMR spectrum
   Ute Becker             : Parallelization
   Giovanni Bistoni       : ED, misc. LED, open-shell LED, HFLD
   Martin Brehm           : Molecular dynamics
   Dmytro Bykov           : SCF Hessian
   Vijay G. Chilkuri      : MRCI spin determinant printing, contributions to CSF-ICE
   Dipayan Datta          : RHF DLPNO-CCSD density
   Achintya Kumar Dutta   : EOM-CC, STEOM-CC
   Dmitry Ganyushin       : Spin-Orbit,Spin-Spin,Magnetic field MRCI
   Miquel Garcia          : C-PCM and meta-GGA Hessian, CC/C-PCM, Gaussian charge scheme
   Yang Guo               : DLPNO-NEVPT2, F12-NEVPT2, CIM, IAO-localization
   Andreas Hansen         : Spin unrestricted coupled pair/coupled cluster methods
   Benjamin Helmich-Paris : MC-RPA, TRAH-SCF, COSX integrals
   Lee Huntington         : MR-EOM, pCC
   Robert Izsak           : Overlap fitted RIJCOSX, COSX-SCS-MP3, EOM
   Marcus Kettner         : VPT2
   Christian Kollmar      : KDIIS, OOCD, Brueckner-CCSD(T), CCSD density, CASPT2, CASPT2-K
   Simone Kossmann        : Meta GGA functionals, TD-DFT gradient, OOMP2, MP2 Hessian
   Martin Krupicka        : Initial AUTO-CI
   Lucas Lang             : DCDCAS
   Marvin Lechner         : AUTO-CI (C++ implementation), FIC-MRCC
   Dagmar Lenk            : GEPOL surface, SMD
   Dimitrios Liakos       : Extrapolation schemes; Compound Job, initial MDCI parallelization
   Dimitrios Manganas     : Further ROCIS development; embedding schemes
   Dimitrios Pantazis     : SARC Basis sets
   Anastasios Papadopoulos: AUTO-CI, single reference methods and gradients
   Taras Petrenko         : DFT Hessian,TD-DFT gradient, ASA, ECA, R-Raman, ABS, FL, XAS/XES, NRVS
   Peter Pinski           : DLPNO-MP2, DLPNO-MP2 Gradient
   Christoph Reimann      : Effective Core Potentials
   Marius Retegan         : Local ZFS, SOC
   Christoph Riplinger    : Optimizer, TS searches, QM/MM, DLPNO-CCSD(T), (RO)-DLPNO pert. Triples
   Tobias Risthaus        : Range-separated hybrids, TD-DFT gradient, RPA, STAB
   Michael Roemelt        : Original ROCIS implementation
   Masaaki Saitow         : Open-shell DLPNO-CCSD energy and density
   Barbara Sandhoefer     : DKH picture change effects
   Avijit Sen             : IP-ROCIS
   Kantharuban Sivalingam : CASSCF convergence, NEVPT2, FIC-MRCI
   Bernardo de Souza      : ESD, SOC TD-DFT
   Georgi Stoychev        : AutoAux, RI-MP2 NMR, DLPNO-MP2 response
   Willem Van den Heuvel  : Paramagnetic NMR
   Boris Wezisla          : Elementary symmetry handling
   Frank Wennmohs         : Technical directorship


 We gratefully acknowledge several colleagues who have allowed us to
 interface, adapt or use parts of their codes:
   Stefan Grimme, W. Hujo, H. Kruse, P. Pracht,  : VdW corrections, initial TS optimization,
                  C. Bannwarth, S. Ehlert          DFT functionals, gCP, sTDA/sTD-DF
   Ed Valeev, F. Pavosevic, A. Kumar             : LibInt (2-el integral package), F12 methods
   Garnet Chan, S. Sharma, J. Yang, R. Olivares  : DMRG
   Ulf Ekstrom                                   : XCFun DFT Library
   Mihaly Kallay                                 : mrcc  (arbitrary order and MRCC methods)
   Jiri Pittner, Ondrej Demel                    : Mk-CCSD
   Frank Weinhold                                : gennbo (NPA and NBO analysis)
   Christopher J. Cramer and Donald G. Truhlar   : smd solvation model
   Lars Goerigk                                  : TD-DFT with DH, B97 family of functionals
   V. Asgeirsson, H. Jonsson                     : NEB implementation
   FAccTs GmbH                                   : IRC, NEB, NEB-TS, DLPNO-Multilevel, CI-OPT
                                                   MM, QMMM, 2- and 3-layer-ONIOM, Crystal-QMMM,
                                                   LR-CPCM, SF, NACMEs, symmetry and pop. for TD-DFT,
                                                   nearIR, NL-DFT gradient (VV10), updates on ESD,
                                                   ML-optimized integration grids
   S Lehtola, MJT Oliveira, MAL Marques          : LibXC Library
   Liviu Ungur et al                             : ANISO software


 Your calculation uses the libint2 library for the computation of 2-el integrals
 For citations please refer to: http://libint.valeyev.net

 Your ORCA version has been built with support for libXC version: 5.1.0
 For citations please refer to: https://tddft.org/programs/libxc/

 This ORCA versions uses:
   CBLAS   interface :  Fast vector & matrix operations
   LAPACKE interface :  Fast linear algebra routines
   Shared memory     :  Shared parallel matrices


Your calculation utilizes the atom-pairwise dispersion correction
based on tight binding partial charges (D4)
Cite in your paper:
E.Caldeweyher, C.Bannwarth, S.Grimme, J.Chem.Phys., (2017), 147, 034112.
E.Caldeweyher, S.Ehlert, A.Hansen, H.Neugebauer, S.Grimme, J.Chem.Phys., (2018), in progress.
   

================================================================================

----- Orbital basis set information -----
Your calculation utilizes the basis: 6-311+G**
   H, Li - Ne  : R. Krishnan, J. S. Binkley, R. Seeger and J. A. Pople, J. Chem. Phys. 72, 650 (1980).
   Na - Ar     : A. D. McLean and G. S. Chandler J. Chem. Phys. 72, 5639, (1980).
   K  - Ca     : J.-P. Blaudeau, M. P. McGrath, L. A. Curtiss and L. Radom, J. Chem. Phys. 107, 5016 (1997).
   Ga - Kr     : L. A. Curtiss, M. P. McGrath, J.-P. Blandeau, N. E. Davis, R. C. Binning and L. Radom, J. Chem. Phys. 103, 6104 (1995).
   Pol./Diff.
   H, Li - Cl  : T. Clark, J. Chandrasekhar and P. v. R. Schleyer, J. Comp. Chem. 4, 294 (1983).
   H - Ne      : M. J. Frisch, J. A. Pople and J. S. Binkley, J. Chem. Phys. 80, 3265 (1984).

----- AuxJ basis set information -----
Your calculation utilizes the auxiliary basis: def2/J
   F. Weigend, Phys. Chem. Chem. Phys. 8, 1057 (2006).

================================================================================
                                        WARNINGS
                       Please study these warnings very carefully!
================================================================================

INFO   : Checking CIS options ...

WARNING: CIS/ROCIS methods need fully converged wavefunctions
  ===> : Setting SCFConvForced true
         You can overwrite this default with %scf ConvForced false 


INFO   : the flag for use of the SHARK integral package has been found!

================================================================================
                                       INPUT FILE
================================================================================
NAME = Stone-Wales_defect_loss_all.inp
|  1> !b3lyp 6-311+g** d4 moread UKS
|  2> 
|  3> %moinp "Stone-Wales_defect_loss_all_orca6.0.gbw"
|  4> 
|  5> %scf
|  6>   stabperform true
|  7>   stabdtol 0.00001
|  8>   stabrtol 0.00001
|  9>   end
| 10>   
| 11> %maxcore 5000
| 12> %pal
| 13> nprocs 8
| 14> end
| 15> 
| 16> %tddft
| 17>   nroots 1000
| 18>   end
| 19> 
| 20> * xyz 0 1
| 21>   C   2.71298421600208     -3.33985907029249      0.00408862282025
| 22>   C   1.62894952381036     -3.98105538228225      0.00343311006043
| 23>   C   0.49399755947310     -3.18353207269706      0.00425633657058
| 24>   C   -0.87366918778543     -3.28194878469370      0.00415897719297
| 25>   C   -1.90681739844628     -2.62198050412133      0.00482240352459
| 26>   C   -2.27355126437604     -1.28619714461377      0.00617618604627
| 27>   C   -3.48376591912827     -0.56759823118329      0.00687620814728
| 28>   C   -3.68918606874886      0.65084166822616      0.00810090626790
| 29>   C   -2.71434594166232      1.66357684901013      0.00914046282442
| 30>   C   -2.52403474373496      3.04918640242731      0.01052025107029
| 31>   C   -1.45490923231414      3.68158257687912      0.01116213208327
| 32>   C   -0.14845918413508      3.18280865314331      0.01068132823039
| 33>   C   1.20836506103119      3.55134231969499      0.01105025377334
| 34>   C   2.17712504933983      2.78439639956928      0.01029357985810
| 35>   C   2.22588644525569      1.37790937874251      0.00890134657613
| 36>   C   3.22093036403385      0.41412545935610      0.00792594415340
| 37>   C   3.30220781818610     -0.80918935991331      0.00669363794271
| 38>   C   2.55836529959027     -1.96113444712599      0.00551677078035
| 39>   C   0.33107626214856     -0.55336918062113      0.00681459906704
| 40>   C   -1.42247968736763      1.01978882918565      0.00847404376336
| 41>   C   -1.16308129230826     -0.36553286718319      0.00706820837215
| 42>   C   1.04232257141807     -1.75530072711139      0.00562881548450
| 43>   C   0.88474817429057      0.84685583954253      0.00830328293240
| 44>   C   -0.20509842457239      1.74063339606179      0.00920259245787
| 45> **                         ****END OF INPUT****
================================================================================

                       ****************************
                       * Single Point Calculation *
                       ****************************

---------------------------------
CARTESIAN COORDINATES (ANGSTROEM)
---------------------------------
  C      2.712984   -3.339859    0.004089
  C      1.628950   -3.981055    0.003433
  C      0.493998   -3.183532    0.004256
  C     -0.873669   -3.281949    0.004159
  C     -1.906817   -2.621981    0.004822
  C     -2.273551   -1.286197    0.006176
  C     -3.483766   -0.567598    0.006876
  C     -3.689186    0.650842    0.008101
  C     -2.714346    1.663577    0.009140
  C     -2.524035    3.049186    0.010520
  C     -1.454909    3.681583    0.011162
  C     -0.148459    3.182809    0.010681
  C      1.208365    3.551342    0.011050
  C      2.177125    2.784396    0.010294
  C      2.225886    1.377909    0.008901
  C      3.220930    0.414125    0.007926
  C      3.302208   -0.809189    0.006694
  C      2.558365   -1.961134    0.005517
  C      0.331076   -0.553369    0.006815
  C     -1.422480    1.019789    0.008474
  C     -1.163081   -0.365533    0.007068
  C      1.042323   -1.755301    0.005629
  C      0.884748    0.846856    0.008303
  C     -0.205098    1.740633    0.009203

----------------------------
CARTESIAN COORDINATES (A.U.)
----------------------------
  NO LB      ZA    FRAG     MASS         X           Y           Z
   0 C     6.0000    0    12.011    5.126797   -6.311419    0.007726
   1 C     6.0000    0    12.011    3.078268   -7.523104    0.006488
   2 C     6.0000    0    12.011    0.933520   -6.016004    0.008043
   3 C     6.0000    0    12.011   -1.650995   -6.201984    0.007859
   4 C     6.0000    0    12.011   -3.603363   -4.954825    0.009113
   5 C     6.0000    0    12.011   -4.296389   -2.430560    0.011671
   6 C     6.0000    0    12.011   -6.583364   -1.072605    0.012994
   7 C     6.0000    0    12.011   -6.971551    1.229913    0.015308
   8 C     6.0000    0    12.011   -5.129370    3.143705    0.017273
   9 C     6.0000    0    12.011   -4.769734    5.762127    0.019880
  10 C     6.0000    0    12.011   -2.749380    6.957183    0.021093
  11 C     6.0000    0    12.011   -0.280547    6.014637    0.020185
  12 C     6.0000    0    12.011    2.283479    6.711064    0.020882
  13 C     6.0000    0    12.011    4.114170    5.261747    0.019452
  14 C     6.0000    0    12.011    4.206316    2.603871    0.016821
  15 C     6.0000    0    12.011    6.086676    0.782584    0.014978
  16 C     6.0000    0    12.011    6.240268   -1.529146    0.012649
  17 C     6.0000    0    12.011    4.834610   -3.706007    0.010425
  18 C     6.0000    0    12.011    0.625643   -1.045716    0.012878
  19 C     6.0000    0    12.011   -2.688097    1.927122    0.016014
  20 C     6.0000    0    12.011   -2.197905   -0.690757    0.013357
  21 C     6.0000    0    12.011    1.969704   -3.317038    0.010637
  22 C     6.0000    0    12.011    1.671932    1.600326    0.015691
  23 C     6.0000    0    12.011   -0.387580    3.289320    0.017390

--------------------------------
INTERNAL COORDINATES (ANGSTROEM)
--------------------------------
 C      0   0   0     0.000000000000     0.00000000     0.00000000
 C      1   0   0     1.259469870256     0.00000000     0.00000000
 C      2   1   0     1.387140969183   114.30059571     0.00000000
 C      3   2   1     1.371203190718   140.78863659   179.99996264
 C      4   3   2     1.225950160768   143.31392703   180.00141401
 C      5   4   3     1.385212165946   137.92223878     0.00000000
 C      6   5   4     1.407481580338   136.05297627   179.99872138
 C      7   6   5     1.235635353261   130.27058164   180.00083632
 C      8   7   6     1.405683783948   126.52262402     0.00000000
 C      9   8   7     1.398618636510   143.91282771   179.99854374
 C     10   9   8     1.242157273715   128.42520780   180.00143560
 C     11  10   9     1.398423178640   128.49957108     0.00000000
 C     12  11  10     1.405983368237   143.90844681   179.99904375
 C     13  12  11     1.235598046252   126.43631694   180.00064768
 C     14  13  12     1.407332708282   130.35348328     0.00000000
 C     15  14  13     1.385277154571   136.07132320   179.99857293
 C     16  15  14     1.226012516321   137.88689886   180.00143034
 C     17  16  15     1.371233226494   143.34741189     0.00000000
 C     18  17  16     2.634885421844    90.55634815     0.00000000
 C      9   8   7     1.443392489093   107.41881510     0.00000000
 C     20   9   8     1.409399058522   127.09459074     0.00000000
 C     19  18  17     1.396607375385    27.08989290   179.99779927
 C     15  14  13     1.442452800276   109.61661657     0.00000000
 C     23  15  14     1.409469665636   119.04278098     0.00000000

---------------------------
INTERNAL COORDINATES (A.U.)
---------------------------
 C      0   0   0     0.000000000000     0.00000000     0.00000000
 C      1   0   0     2.380053128708     0.00000000     0.00000000
 C      2   1   0     2.621316540898   114.30059571     0.00000000
 C      3   2   1     2.591198504416   140.78863659   179.99996264
 C      4   3   2     2.316710057689   143.31392703   180.00141401
 C      5   4   3     2.617671631013   137.92223878     0.00000000
 C      6   5   4     2.659754725378   136.05297627   179.99872138
 C      7   6   5     2.335012419054   130.27058164   180.00083632
 C      8   7   6     2.656357382555   126.52262402     0.00000000
 C      9   8   7     2.643006188802   143.91282771   179.99854374
 C     10   9   8     2.347337062580   128.42520780   180.00143560
 C     11  10   9     2.642636826958   128.49957108     0.00000000
 C     12  11  10     2.656923514816   143.90844681   179.99904375
 C     13  12  11     2.334941919024   126.43631694   180.00064768
 C     14  13  12     2.659473397962   130.35348328     0.00000000
 C     15  14  13     2.617794441716   136.07132320   179.99857293
 C     16  15  14     2.316827892607   137.88689886   180.00143034
 C     17  16  15     2.591255263807   143.34741189     0.00000000
 C     18  17  16     4.979211841546    90.55634815     0.00000000
 C      9   8   7     2.727616508144   107.41881510     0.00000000
 C     20   9   8     2.663378234013   127.09459074     0.00000000
 C     19  18  17     2.639205456093    27.08989290   179.99779927
 C     15  14  13     2.725840753630   109.61661657     0.00000000
 C     23  15  14     2.663511662122   119.04278098     0.00000000

---------------------
BASIS SET INFORMATION
---------------------
There are 1 groups of distinct atoms

 Group   1 Type C   : 12s6p1d contracted to 5s4p1d pattern {63111/3111/1}

Atom   0C    basis set group =>   1
Atom   1C    basis set group =>   1
Atom   2C    basis set group =>   1
Atom   3C    basis set group =>   1
Atom   4C    basis set group =>   1
Atom   5C    basis set group =>   1
Atom   6C    basis set group =>   1
Atom   7C    basis set group =>   1
Atom   8C    basis set group =>   1
Atom   9C    basis set group =>   1
Atom  10C    basis set group =>   1
Atom  11C    basis set group =>   1
Atom  12C    basis set group =>   1
Atom  13C    basis set group =>   1
Atom  14C    basis set group =>   1
Atom  15C    basis set group =>   1
Atom  16C    basis set group =>   1
Atom  17C    basis set group =>   1
Atom  18C    basis set group =>   1
Atom  19C    basis set group =>   1
Atom  20C    basis set group =>   1
Atom  21C    basis set group =>   1
Atom  22C    basis set group =>   1
Atom  23C    basis set group =>   1
---------------------------------
AUXILIARY/J BASIS SET INFORMATION
---------------------------------
There are 1 groups of distinct atoms

 Group   1 Type C   : 12s5p4d2f1g contracted to 6s4p3d1f1g pattern {711111/2111/211/2/1}

Atom   0C    basis set group =>   1
Atom   1C    basis set group =>   1
Atom   2C    basis set group =>   1
Atom   3C    basis set group =>   1
Atom   4C    basis set group =>   1
Atom   5C    basis set group =>   1
Atom   6C    basis set group =>   1
Atom   7C    basis set group =>   1
Atom   8C    basis set group =>   1
Atom   9C    basis set group =>   1
Atom  10C    basis set group =>   1
Atom  11C    basis set group =>   1
Atom  12C    basis set group =>   1
Atom  13C    basis set group =>   1
Atom  14C    basis set group =>   1
Atom  15C    basis set group =>   1
Atom  16C    basis set group =>   1
Atom  17C    basis set group =>   1
Atom  18C    basis set group =>   1
Atom  19C    basis set group =>   1
Atom  20C    basis set group =>   1
Atom  21C    basis set group =>   1
Atom  22C    basis set group =>   1
Atom  23C    basis set group =>   1


           ************************************************************
           *        Program running with 8 parallel MPI-processes     *
           *              working on a common directory               *
           ************************************************************
------------------------------------------------------------------------------
                           ORCA GTO INTEGRAL CALCULATION
                           -- RI-GTO INTEGRALS CHOSEN --
------------------------------------------------------------------------------
------------------------------------------------------------------------------
                   ___                                                        
                  /   \      - P O W E R E D   B Y -                         
                 /     \                                                     
                 |  |  |   _    _      __       _____    __    __             
                 |  |  |  | |  | |    /  \     |  _  \  |  |  /  |          
                  \  \/   | |  | |   /    \    | | | |  |  | /  /          
                 / \  \   | |__| |  /  /\  \   | |_| |  |  |/  /          
                |  |  |   |  __  | /  /__\  \  |    /   |      \           
                |  |  |   | |  | | |   __   |  |    \   |  |\   \          
                \     /   | |  | | |  |  |  |  | |\  \  |  | \   \       
                 \___/    |_|  |_| |__|  |__|  |_| \__\ |__|  \__/        
                                                                              
                      - O R C A' S   B I G   F R I E N D -                    
                                      &                                       
                       - I N T E G R A L  F E E D E R -                       
                                                                              
 v1 FN, 2020, v2 2021                                                         
------------------------------------------------------------------------------


Reading SHARK input file Stone-Wales_defect_loss_all.SHARKINP.tmp ... ok
----------------------
SHARK INTEGRAL PACKAGE
----------------------

Number of atoms                             ...     24
Number of basis functions                   ...    528
Number of shells                            ...    240
Maximum angular momentum                    ...      2
Integral batch strategy                     ... SHARK/LIBINT Hybrid
RI-J (if used) integral strategy            ... SPLIT-RIJ (Revised 2003 algorithm where possible)
Printlevel                                  ...      1
Contraction scheme used                     ... SEGMENTED contraction
Coulomb Range Separation                    ... NOT USED
Exchange Range Separation                   ... NOT USED
Finite Nucleus Model                        ... NOT USED
Auxiliary Coulomb fitting basis             ... AVAILABLE
   # of basis functions in Aux-J            ...   1176
   # of shells in Aux-J                     ...    360
   Maximum angular momentum in Aux-J        ...      4
Auxiliary J/K fitting basis                 ... NOT available
Auxiliary Correlation fitting basis         ... NOT available
Auxiliary 'external' fitting basis          ... NOT available
Integral threshold                          ...     1.000000e-10
Primitive cut-off                           ...     1.000000e-11
Primitive pair pre-selection threshold      ...     1.000000e-11

Calculating pre-screening integrals         ... done (  0.0 sec) Dimension = 240
Organizing shell pair data                  ... done (  0.2 sec)
Shell pair information
Total number of shell pairs                 ...     28920
Shell pairs after pre-screening             ...     23981
Total number of primitive shell pairs       ...    104700
Primitive shell pairs kept                  ...     56667
          la=0 lb=0:   5671 shell pairs
          la=1 lb=0:   9792 shell pairs
          la=1 lb=1:   4205 shell pairs
          la=2 lb=0:   2168 shell pairs
          la=2 lb=1:   1918 shell pairs
          la=2 lb=2:    227 shell pairs

Calculating one electron integrals          ... done (  0.0 sec)
Calculating RI/J V-Matrix + Cholesky decomp.... done (  0.1 sec)
Calculating Nuclear repulsion               ... done (  0.0 sec) ENN=   1605.968709271295 Eh

SHARK setup successfully completed in   0.6 seconds

Maximum memory used throughout the entire GTOINT-calculation: 34.3 MB


           ************************************************************
           *        Program running with 8 parallel MPI-processes     *
           *              working on a common directory               *
           ************************************************************
-------------------------------------------------------------------------------
                                 ORCA SCF
-------------------------------------------------------------------------------

------------
SCF SETTINGS
------------
Hamiltonian:
 Density Functional     Method          .... DFT(GTOs)
 Exchange Functional    Exchange        .... B88
   X-Alpha parameter    XAlpha          ....  0.666667
   Becke's b parameter  XBeta           ....  0.004200
 Correlation Functional Correlation     .... LYP
 LDA part of GGA corr.  LDAOpt          .... VWN-5
 Gradients option       PostSCFGGA      .... off
 Hybrid DFT is turned on
   Fraction HF Exchange ScalHFX         ....  0.200000
   Scaling of DF-GGA-X  ScalDFX         ....  0.720000
   Scaling of DF-GGA-C  ScalDFC         ....  0.810000
   Scaling of DF-LDA-C  ScalLDAC        ....  1.000000
   Perturbative correction              ....  0.000000
   Density functional embedding theory  .... OFF
   NL short-range parameter             ....  4.800000
 RI-approximation to the Coulomb term is turned on
   Number of AuxJ basis functions       .... 1176
   RIJ-COSX (HFX calculated with COS-X)).... on


General Settings:
 Integral files         IntName         .... Stone-Wales_defect_loss_all
 Hartree-Fock type      HFTyp           .... UHF
 Total Charge           Charge          ....    0
 Multiplicity           Mult            ....    1
 Number of Electrons    NEL             ....  144
 Basis Dimension        Dim             ....  528
 Nuclear Repulsion      ENuc            ....   1605.9687092713 Eh

Convergence Acceleration:
 DIIS                   CNVDIIS         .... on
   Start iteration      DIISMaxIt       ....    12
   Startup error        DIISStart       ....  0.200000
   # of expansion vecs  DIISMaxEq       ....     5
   Bias factor          DIISBfac        ....   1.050
   Max. coefficient     DIISMaxC        ....  10.000
 Trust-Rad. Augm. Hess. CNVTRAH         .... auto
   Auto Start mean grad. ratio tolernc. ....  1.125000
   Auto Start start iteration           ....     1
   Auto Start num. interpolation iter.  ....    10
   Max. Number of Micro iterations      ....    16
   Max. Number of Macro iterations      .... Maxiter - #DIIS iter
   Number of Davidson start vectors     ....     2
   Converg. threshold I  (grad. norm)   ....   5.000e-05
   Converg. threshold II (energy diff.) ....   1.000e-06
   Grad. Scal. Fac. for Micro threshold ....   0.100
   Minimum threshold for Micro iter.    ....   0.010
   NR start threshold (gradient norm)   ....   0.001
   Initial trust radius                 ....   0.400
   Minimum AH scaling param. (alpha)    ....   1.000
   Maximum AH scaling param. (alpha)    .... 1000.000
   Orbital update algorithm             .... Taylor
   White noise on init. David. guess    .... on
   Maximum white noise                  ....   0.010
   Quad. conv. algorithm                .... NR
 SOSCF                  CNVSOSCF        .... off
 Level Shifting         CNVShift        .... on
   Level shift para.    LevelShift      ....    0.2500
   Turn off err/grad.   ShiftErr        ....    0.0010
 Zerner damping         CNVZerner       .... off
 Static damping         CNVDamp         .... on
   Fraction old density DampFac         ....    0.7000
   Max. Damping (<1)    DampMax         ....    0.9800
   Min. Damping (>=0)   DampMin         ....    0.0000
   Turn off err/grad.   DampErr         ....    0.1000
 Fernandez-Rico         CNVRico         .... off

SCF Procedure:
 Maximum # iterations   MaxIter         ....   125
 SCF integral mode      SCFMode         .... Direct
   Integral package                     .... SHARK and LIBINT hybrid scheme
 Reset frequency        DirectResetFreq ....    20
 Integral Threshold     Thresh          ....  1.000e-10 Eh
 Primitive CutOff       TCut            ....  1.000e-11 Eh

Convergence Tolerance:
 Convergence Check Mode ConvCheckMode   .... Total+1el-Energy
 Convergence forced     ConvForced      .... 1
 Energy Change          TolE            ....  1.000e-06 Eh
 1-El. energy change                    ....  1.000e-03 Eh
 DIIS Error             TolErr          ....  1.000e-06


Diagonalization of the overlap matrix:
Smallest eigenvalue                        ... 8.337e-10
Time for diagonalization                   ...    0.025 sec
Threshold for overlap eigenvalues          ... 1.000e-08
Number of eigenvalues below threshold      ... 5
Smallest eigenvalue above threshold        ... 1.499e-08
Time for construction of square roots      ...    0.043 sec
Total time needed                          ...    0.069 sec

---------------------
INITIAL GUESS: MOREAD
---------------------
Guess MOs are being read from file: Stone-Wales_defect_loss_all_orca6.0.gbw
Input Geometry matches current geometry (good)
Input basis set matches current basis set (good)
MOs were renormalized
MOs were reorthogonalized (Cholesky)
                      ------------------
                      INITIAL GUESS DONE (   0.2 sec)
                      ------------------
-------------------
DFT GRID GENERATION
-------------------

General Integration Accuracy     IntAcc      ... 4.388
Radial Grid Type                 RadialGrid  ... OptM3 with GC (2021)
Angular Grid (max. ang.)         AngularGrid ... 4 (Lebedev-302)
Angular grid pruning method      GridPruning ... 4 (adaptive)
Weight generation scheme         WeightScheme... Becke
Basis function cutoff            BFCut       ... 1.0000e-10
Integration weight cutoff        WCut        ... 1.0000e-14
Angular grids for H and He will be reduced by one unit
Partially contracted basis set               ... off
Rotationally invariant grid construction     ... off

Total number of grid points                  ...   148566
Total number of batches                      ...     2334
Average number of points per batch           ...       63
Average number of grid points per atom       ...     6190
Time for grid setup =    1.037 sec

--------------------
COSX GRID GENERATION
--------------------

GRIDX 1
-------
General Integration Accuracy     IntAcc      ... 3.816
Radial Grid Type                 RadialGrid  ... OptM3 with GC (2021)
Angular Grid (max. ang.)         AngularGrid ... 1 (Lebedev-50)
Angular grid pruning method      GridPruning ... 4 (adaptive)
Weight generation scheme         WeightScheme... Becke
Basis function cutoff            BFCut       ... 1.0000e-10
Integration weight cutoff        WCut        ... 1.0000e-14
Angular grids for H and He will be reduced by one unit
Partially contracted basis set               ... on
Rotationally invariant grid construction     ... off

Total number of grid points                  ...    18724
Total number of batches                      ...      302
Average number of points per batch           ...       62
Average number of grid points per atom       ...      780
UseSFitting                                  ... on

GRIDX 2
-------
General Integration Accuracy     IntAcc      ... 4.020
Radial Grid Type                 RadialGrid  ... OptM3 with GC (2021)
Angular Grid (max. ang.)         AngularGrid ... 2 (Lebedev-110)
Angular grid pruning method      GridPruning ... 4 (adaptive)
Weight generation scheme         WeightScheme... Becke
Basis function cutoff            BFCut       ... 1.0000e-10
Integration weight cutoff        WCut        ... 1.0000e-14
Angular grids for H and He will be reduced by one unit
Partially contracted basis set               ... on
Rotationally invariant grid construction     ... off

Total number of grid points                  ...    48625
Total number of batches                      ...      774
Average number of points per batch           ...       62
Average number of grid points per atom       ...     2026
UseSFitting                                  ... on

GRIDX 3
-------
General Integration Accuracy     IntAcc      ... 4.338
Radial Grid Type                 RadialGrid  ... OptM3 with GC (2021)
Angular Grid (max. ang.)         AngularGrid ... 3 (Lebedev-194)
Angular grid pruning method      GridPruning ... 4 (adaptive)
Weight generation scheme         WeightScheme... Becke
Basis function cutoff            BFCut       ... 1.0000e-10
Integration weight cutoff        WCut        ... 1.0000e-14
Angular grids for H and He will be reduced by one unit
Partially contracted basis set               ... on
Rotationally invariant grid construction     ... off

Total number of grid points                  ...   105121
Total number of batches                      ...     1656
Average number of points per batch           ...       63
Average number of grid points per atom       ...     4380
UseSFitting                                  ... on

Time for X-Grid setup             =    1.587 sec

--------------
SCF ITERATIONS
--------------
ITER       Energy         Delta-E        Max-DP      RMS-DP      [F,P]     Damp
               ***  Starting incremental Fock matrix formation  ***
  0   -913.4733849789   0.000000000000 1.08544494  0.01562285  0.0000278 0.7000
                 **** Energy Check signals convergence ****

               *****************************************************
               *                     SUCCESS                       *
               *           SCF CONVERGED AFTER   1 CYCLES          *
               *****************************************************


------------------------------------------------------------------------------
                          SCF STABILITY ANALYSIS                              
------------------------------------------------------------------------------


---------------
TD-DFT XC SETUP
---------------

DFT calculation                         ... on
Name of the grid file                   ... Stone-Wales_defect_loss_all.grid.tmp
Exchange functional (SCF)               ... B88
Exchange functional (TD-DFT)            ... B88
   X-Alpha parameter    XAlpha (SCF)    ...  0.666667
   X-Alpha parameter    XAlpha (TD-DFT) ...  0.666667
   Becke's b parameter  XBeta (SCF)     ...  0.004200
   Becke's b parameter  XBeta (TD-DFT)  ...  0.004200
Correlation functional (SCF)            ... LYP
Correlation functional (TD-DFT)         ... LYP
 LDA part of GGA corr.  LDAOpt (SCF)    ... VWN-5
 LDA part of GGA corr.  LDAOpt (TD-DFT) ... VWN-5
Hybrid DFT                              ... on
   Exchange mixing (SCF)                ...  0.200
   Exchange mixing (TD-DFT)             ...  0.200
   GGA exch. scaling(SCF)               ...  0.720
   GGA exch. scaling (TD-DFT)           ...  0.720
   GGA corr. scaling (SCF)              ...  0.810
   GGA corr. scaling (TD-DFT)           ...  0.810

Electron density on the grid   ... found on disk
Building xc-kernel on the grid ... done
                    *** TD-DFT CALCULATION INITIALIZED ***

                       ****Iteration    0****

   Memory handling for direct AO based CIS:
   Memory per vector needed      ...    16 MB
   Memory needed                 ...    99 MB
   Memory available              ...  5000 MB
   Number of vectors per batch   ...   301
   Number of batches             ...     1
   Time for densities:     0.099
   Time for XC-Integration:    11.510
   Time for K (COSX):    80.736
   Time for RI-J (Direct):     3.048
   Time for Sigma-Completion:     0.113
   Lowest Energy          :     0.046189965884
   Maximum Energy change  :     0.057673829398 (vector 2)
   Maximum residual norm  :     0.002407612132

                       ****Iteration    1****
   Time for densities:     0.061
   Time for XC-Integration:     7.049
   Time for K (COSX):    71.146
   Time for RI-J (Direct):     1.826
   Time for Sigma-Completion:     0.046
   Lowest Energy          :     0.040403970026
   Maximum Energy change  :     0.006103978674 (vector 1)
   Maximum residual norm  :     0.003233140671

                       ****Iteration    2****
   Time for densities:     0.049
   Time for XC-Integration:     7.099
   Time for K (COSX):    71.151
   Time for RI-J (Direct):     1.763
   Time for Sigma-Completion:     0.047
   Lowest Energy          :     0.040069244778
   Maximum Energy change  :     0.003853815495 (vector 1)
   Maximum residual norm  :     0.001155013831

                       ****Iteration    3****
   Time for densities:     0.061
   Time for XC-Integration:     7.412
   Time for K (COSX):    71.012
   Time for RI-J (Direct):     1.872
   Time for Sigma-Completion:     0.042
   Lowest Energy          :     0.038613919496
   Maximum Energy change  :     0.001455325282 (vector 0)
   Maximum residual norm  :     0.000881362646

                       ****Iteration    4****
   Time for densities:     0.047
   Time for XC-Integration:     7.604
   Time for K (COSX):    71.255
   Time for RI-J (Direct):     1.854
   Time for Sigma-Completion:     0.043
   Lowest Energy          :     0.035564083633
   Maximum Energy change  :     0.003049835863 (vector 0)
   Maximum residual norm  :     0.001093866052

                       ****Iteration    5****
   Time for densities:     0.044
   Time for XC-Integration:     7.641
   Time for K (COSX):    71.178
   Time for RI-J (Direct):     1.809
   Time for Sigma-Completion:     0.043
   Lowest Energy          :     0.034347466995
   Maximum Energy change  :     0.001216616638 (vector 0)
   Maximum residual norm  :     0.000485436962

                       ****Iteration    6****
   Time for densities:     0.060
   Time for XC-Integration:     7.710
   Time for K (COSX):    71.196
   Time for RI-J (Direct):     1.883
   Time for Sigma-Completion:     0.040
   Lowest Energy          :     0.032535328456
   Maximum Energy change  :     0.001812138539 (vector 0)
   Maximum residual norm  :     0.001278828362

                       ****Iteration    7****
   Time for densities:     0.064
   Time for XC-Integration:     7.866
   Time for K (COSX):    70.963
   Time for RI-J (Direct):     1.862
   Time for Sigma-Completion:     0.041
   Lowest Energy          :     0.031150093609
   Maximum Energy change  :     0.002968094115 (vector 2)
   Maximum residual norm  :     0.001533278265

                       ****Iteration    8****
   Time for densities:     0.061
   Time for XC-Integration:     7.534
   Time for K (COSX):    71.295
   Time for RI-J (Direct):     1.821
   Time for Sigma-Completion:     0.042
   Lowest Energy          :     0.030173427953
   Maximum Energy change  :     0.003485823861 (vector 2)
   Maximum residual norm  :     0.001849411184

                       ****Iteration    9****
   Time for densities:     0.063
   Time for XC-Integration:     7.560
   Time for K (COSX):    71.055
   Time for RI-J (Direct):     1.870
   Time for Sigma-Completion:     0.041
   Lowest Energy          :     0.029433844946
   Maximum Energy change  :     0.002318826461 (vector 2)
   Maximum residual norm  :     0.001972499891

                       ****Iteration   10****
   Time for densities:     0.055
   Time for XC-Integration:     7.813
   Time for K (COSX):    70.922
   Time for RI-J (Direct):     1.887
   Time for Sigma-Completion:     0.056
   Lowest Energy          :     0.028717501339
   Maximum Energy change  :     0.002363965416 (vector 2)
   Maximum residual norm  :     0.000951978256

                       ****Iteration   11****
   Time for densities:     0.067
   Time for XC-Integration:     7.833
   Time for K (COSX):    71.189
   Time for RI-J (Direct):     1.881
   Time for Sigma-Completion:     0.046
   Lowest Energy          :     0.028354263736
   Maximum Energy change  :     0.001305014385 (vector 2)
   Maximum residual norm  :     0.000731956945

                       ****Iteration   12****
   Time for densities:     0.031
   Time for XC-Integration:     5.356
   Time for K (COSX):    68.626
   Time for RI-J (Direct):     1.385
   Time for Sigma-Completion:     0.025
   Lowest Energy          :     0.027928087724
   Maximum Energy change  :     0.002632542918 (vector 1)
   Maximum residual norm  :     0.003499544424

                       ****Iteration   13****
   Time for densities:     0.062
   Time for XC-Integration:     7.949
   Time for K (COSX):    71.232
   Time for RI-J (Direct):     1.880
   Time for Sigma-Completion:     0.050
   Lowest Energy          :     0.027284295097
   Maximum Energy change  :     0.004911395281 (vector 1)
   Maximum residual norm  :     0.001358651560

                       ****Iteration   14****
   Time for densities:     0.051
   Time for XC-Integration:     7.922
   Time for K (COSX):    71.094
   Time for RI-J (Direct):     1.916
   Time for Sigma-Completion:     0.043
   Lowest Energy          :     0.026576601780
   Maximum Energy change  :     0.001437895777 (vector 1)
   Maximum residual norm  :     0.000313127725

                       ****Iteration   15****
   Time for densities:     0.052
   Time for XC-Integration:     8.000
   Time for K (COSX):    70.946
   Time for RI-J (Direct):     1.863
   Time for Sigma-Completion:     0.045
   Lowest Energy          :     0.026184467687
   Maximum Energy change  :     0.000445591976 (vector 1)
   Maximum residual norm  :     0.000143615000

                       ****Iteration   16****
   Time for densities:     0.052
   Time for XC-Integration:     7.905
   Time for K (COSX):    70.931
   Time for RI-J (Direct):     1.839
   Time for Sigma-Completion:     0.049
   Lowest Energy          :     0.025985757656
   Maximum Energy change  :     0.000198710031 (vector 0)
   Maximum residual norm  :     0.000081395069

                       ****Iteration   17****
   Time for densities:     0.058
   Time for XC-Integration:     7.970
   Time for K (COSX):    71.170
   Time for RI-J (Direct):     1.830
   Time for Sigma-Completion:     0.046
   Lowest Energy          :     0.025796925960
   Maximum Energy change  :     0.003884861471 (vector 2)
   Maximum residual norm  :     0.009562431701

                       ****Iteration   18****
   Time for densities:     0.047
   Time for XC-Integration:     8.094
   Time for K (COSX):    70.977
   Time for RI-J (Direct):     1.809
   Time for Sigma-Completion:     0.050
   Lowest Energy          :     0.024703540427
   Maximum Energy change  :     0.005107854757 (vector 2)
   Maximum residual norm  :     0.001026833640

                       ****Iteration   19****
   Time for densities:     0.063
   Time for XC-Integration:     8.022
   Time for K (COSX):    71.334
   Time for RI-J (Direct):     1.844
   Time for Sigma-Completion:     0.047
   Lowest Energy          :     0.023645311024
   Maximum Energy change  :     0.001058229403 (vector 0)
   Maximum residual norm  :     0.000258201369

                       ****Iteration   20****
   Time for densities:     0.044
   Time for XC-Integration:     8.091
   Time for K (COSX):    71.039
   Time for RI-J (Direct):     1.843
   Time for Sigma-Completion:     0.051
   Lowest Energy          :     0.023429977669
   Maximum Energy change  :     0.000215333355 (vector 0)
   Maximum residual norm  :     0.000031690143

                       ****Iteration   21****
   Time for densities:     0.046
   Time for XC-Integration:     8.026
   Time for K (COSX):    71.269
   Time for RI-J (Direct):     1.758
   Time for Sigma-Completion:     0.044
   Lowest Energy          :     0.023403517798
   Maximum Energy change  :     0.000026459871 (vector 0)
   Maximum residual norm  :     0.000003980921

      *** CONVERGENCE OF RESIDUAL NORM REACHED ***

----------------------------- 
SCF STABILITY ANALYSIS RESULT 
----------------------------- 

UHF/UKS->UHF/UKS - singlet - internal

   Root    Eigenvalue (au) 
     0       0.023404 
     1       0.026521 
     2       0.030673 

Stability Analysis indicates a stable HF/KS wave function.


Total time for performing the stability analysis:  1793.574sec

Old exchange energy                            =    -24.808372341 Eh
New exchange energy                            =    -24.808387499 Eh
Exchange energy change after final integration =     -0.000015158 Eh
Total energy after final integration           =   -913.473399774 Eh
Final COS-X integration done in                =    21.056 sec

----------------
TOTAL SCF ENERGY
----------------

Total Energy       :         -913.47339977 Eh          -24856.87491 eV

Components:
Nuclear Repulsion  :         1605.96870927 Eh           43700.63028 eV
Electronic Energy  :        -2519.44210904 Eh          -68557.50518 eV
One Electron Energy:        -4419.99785834 Eh         -120274.25635 eV
Two Electron Energy:         1900.55574929 Eh           51716.75117 eV
Max COSX asymmetry :            0.00001112 Eh               0.00030 eV

Virial components:
Potential Energy   :        -1823.84612603 Eh          -49629.37620 eV
Kinetic Energy     :          910.37272625 Eh           24772.50129 eV
Virial Ratio       :            2.00340594


DFT components:
N(Alpha)           :       72.000023012605 electrons
N(Beta)            :       72.000022385137 electrons
N(Total)           :      144.000045397742 electrons
E(X)               :      -98.834195796853 Eh       
E(C)               :       -5.861197047175 Eh       
E(XC)              :     -104.695392844028 Eh       
DFET-embed. en.    :        0.000000000000 Eh       

---------------
SCF CONVERGENCE
---------------

  Last Energy change         ...    3.6293e-07  Tolerance :   1.0000e-06
  Last MAX-Density change    ...    3.7412e-01  Tolerance :   1.0000e-05
  Last RMS-Density change    ...    4.6435e-03  Tolerance :   1.0000e-06
  Last DIIS Error            ...    1.8327e-05  Tolerance :   1.0000e-06

             **** THE GBW FILE WAS UPDATED (Stone-Wales_defect_loss_all.gbw) ****
             **** DENSITY Stone-Wales_defect_loss_all.scfp WAS UPDATED ****
             **** ENERGY FILE WAS UPDATED (Stone-Wales_defect_loss_all.en.tmp) ****
----------------------
UHF SPIN CONTAMINATION
----------------------

Warning: in a DFT calculation there is little theoretical justification to 
         calculate <S**2> as in Hartree-Fock theory. We will do it anyways
         but you should keep in mind that the values have only limited relevance

Expectation value of <S**2>     :     0.276575
Ideal value S*(S+1) for S=0.0   :     0.000000
Deviation                       :     0.276575

             **** THE GBW FILE WAS UPDATED (Stone-Wales_defect_loss_all.gbw) ****
             **** DENSITY Stone-Wales_defect_loss_all.scfp WAS UPDATED ****
----------------
ORBITAL ENERGIES
----------------
                 SPIN UP ORBITALS
  NO   OCC          E(Eh)            E(eV) 
   0   1.0000     -10.274308      -279.5781 
   1   1.0000     -10.274066      -279.5715 
   2   1.0000     -10.270062      -279.4626 
   3   1.0000     -10.269917      -279.4587 
   4   1.0000     -10.266939      -279.3776 
   5   1.0000     -10.264774      -279.3187 
   6   1.0000     -10.253987      -279.0252 
   7   1.0000     -10.253226      -279.0045 
   8   1.0000     -10.239403      -278.6283 
   9   1.0000     -10.239262      -278.6245 
  10   1.0000     -10.226233      -278.2699 
  11   1.0000     -10.225757      -278.2570 
  12   1.0000     -10.223989      -278.2089 
  13   1.0000     -10.223871      -278.2057 
  14   1.0000     -10.223539      -278.1967 
  15   1.0000     -10.221856      -278.1508 
  16   1.0000     -10.221818      -278.1498 
  17   1.0000     -10.221749      -278.1479 
  18   1.0000     -10.221537      -278.1422 
  19   1.0000     -10.220391      -278.1110 
  20   1.0000     -10.220331      -278.1094 
  21   1.0000     -10.213079      -277.9120 
  22   1.0000     -10.212871      -277.9063 
  23   1.0000     -10.212538      -277.8973 
  24   1.0000      -0.960627       -26.1400 
  25   1.0000      -0.931553       -25.3489 
  26   1.0000      -0.914697       -24.8902 
  27   1.0000      -0.887907       -24.1612 
  28   1.0000      -0.860040       -23.4029 
  29   1.0000      -0.859999       -23.4018 
  30   1.0000      -0.832415       -22.6512 
  31   1.0000      -0.807671       -21.9778 
  32   1.0000      -0.786591       -21.4042 
  33   1.0000      -0.769359       -20.9353 
  34   1.0000      -0.760380       -20.6910 
  35   1.0000      -0.738142       -20.0859 
  36   1.0000      -0.692438       -18.8422 
  37   1.0000      -0.687206       -18.6998 
  38   1.0000      -0.674695       -18.3594 
  39   1.0000      -0.642423       -17.4812 
  40   1.0000      -0.599410       -16.3108 
  41   1.0000      -0.591739       -16.1020 
  42   1.0000      -0.588305       -16.0086 
  43   1.0000      -0.580496       -15.7961 
  44   1.0000      -0.561225       -15.2717 
  45   1.0000      -0.544439       -14.8149 
  46   1.0000      -0.531148       -14.4533 
  47   1.0000      -0.526695       -14.3321 
  48   1.0000      -0.505021       -13.7423 
  49   1.0000      -0.480709       -13.0808 
  50   1.0000      -0.475455       -12.9378 
  51   1.0000      -0.469810       -12.7842 
  52   1.0000      -0.459642       -12.5075 
  53   1.0000      -0.441325       -12.0091 
  54   1.0000      -0.431545       -11.7429 
  55   1.0000      -0.428023       -11.6471 
  56   1.0000      -0.421849       -11.4791 
  57   1.0000      -0.394526       -10.7356 
  58   1.0000      -0.380273       -10.3478 
  59   1.0000      -0.371974       -10.1219 
  60   1.0000      -0.330469        -8.9925 
  61   1.0000      -0.320699        -8.7267 
  62   1.0000      -0.317484        -8.6392 
  63   1.0000      -0.315463        -8.5842 
  64   1.0000      -0.311811        -8.4848 
  65   1.0000      -0.309994        -8.4354 
  66   1.0000      -0.303797        -8.2667 
  67   1.0000      -0.301164        -8.1951 
  68   1.0000      -0.296599        -8.0709 
  69   1.0000      -0.272997        -7.4286 
  70   1.0000      -0.263974        -7.1831 
  71   1.0000      -0.226189        -6.1549 
  72   0.0000      -0.137660        -3.7459 
  73   0.0000      -0.131378        -3.5750 
  74   0.0000      -0.123113        -3.3501 
  75   0.0000      -0.115513        -3.1433 
  76   0.0000      -0.098719        -2.6863 
  77   0.0000      -0.096566        -2.6277 
  78   0.0000      -0.093727        -2.5504 
  79   0.0000      -0.086284        -2.3479 
  80   0.0000      -0.066928        -1.8212 
  81   0.0000      -0.047541        -1.2937 
  82   0.0000       0.003886         0.1057 
  83   0.0000       0.013291         0.3617 
  84   0.0000       0.015221         0.4142 
  85   0.0000       0.023735         0.6459 
  86   0.0000       0.024410         0.6642 
  87   0.0000       0.031601         0.8599 
  88   0.0000       0.035930         0.9777 
  89   0.0000       0.040366         1.0984 
  90   0.0000       0.040971         1.1149 
  91   0.0000       0.043187         1.1752 
  92   0.0000       0.048853         1.3293 
  93   0.0000       0.051620         1.4046 
  94   0.0000       0.056853         1.5471 
  95   0.0000       0.058476         1.5912 
  96   0.0000       0.063169         1.7189 
  97   0.0000       0.066390         1.8066 
  98   0.0000       0.071952         1.9579 
  99   0.0000       0.074066         2.0154 
 100   0.0000       0.082547         2.2462 
 101   0.0000       0.082774         2.2524 
 102   0.0000       0.083262         2.2657 
 103   0.0000       0.085867         2.3366 
 104   0.0000       0.096722         2.6319 
 105   0.0000       0.102638         2.7929 
 106   0.0000       0.102852         2.7988 
 107   0.0000       0.110376         3.0035 
 108   0.0000       0.110728         3.0131 
 109   0.0000       0.111086         3.0228 
 110   0.0000       0.115226         3.1355 
 111   0.0000       0.120989         3.2923 
 112   0.0000       0.123130         3.3505 
 113   0.0000       0.131345         3.5741 
 114   0.0000       0.133624         3.6361 
 115   0.0000       0.139199         3.7878 
 116   0.0000       0.140241         3.8162 
 117   0.0000       0.142171         3.8687 
 118   0.0000       0.143224         3.8973 
 119   0.0000       0.145994         3.9727 
 120   0.0000       0.146821         3.9952 
 121   0.0000       0.152024         4.1368 
 122   0.0000       0.163340         4.4447 
 123   0.0000       0.167742         4.5645 
 124   0.0000       0.172995         4.7074 
 125   0.0000       0.174102         4.7376 
 126   0.0000       0.175014         4.7624 
 127   0.0000       0.178660         4.8616 
 128   0.0000       0.179231         4.8771 
 129   0.0000       0.179358         4.8806 
 130   0.0000       0.188340         5.1250 
 131   0.0000       0.188870         5.1394 
 132   0.0000       0.194272         5.2864 
 133   0.0000       0.196792         5.3550 
 134   0.0000       0.201012         5.4698 
 135   0.0000       0.201534         5.4840 
 136   0.0000       0.201836         5.4922 
 137   0.0000       0.202829         5.5193 
 138   0.0000       0.214947         5.8490 
 139   0.0000       0.216891         5.9019 
 140   0.0000       0.217687         5.9236 
 141   0.0000       0.218873         5.9558 
 142   0.0000       0.220276         5.9940 
 143   0.0000       0.223667         6.0863 
 144   0.0000       0.226663         6.1678 
 145   0.0000       0.230080         6.2608 
 146   0.0000       0.238410         6.4875 
 147   0.0000       0.239304         6.5118 
 148   0.0000       0.239969         6.5299 
 149   0.0000       0.242256         6.5921 
 150   0.0000       0.242351         6.5947 
 151   0.0000       0.245477         6.6798 
 152   0.0000       0.247853         6.7444 
 153   0.0000       0.256160         6.9705 
 154   0.0000       0.257604         7.0098 
 155   0.0000       0.258452         7.0328 
 156   0.0000       0.265057         7.2126 
 157   0.0000       0.267839         7.2883 
 158   0.0000       0.269446         7.3320 
 159   0.0000       0.272305         7.4098 
 160   0.0000       0.277392         7.5482 
 161   0.0000       0.281573         7.6620 
 162   0.0000       0.284600         7.7443 
 163   0.0000       0.289113         7.8672 
 164   0.0000       0.293424         7.9845 
 165   0.0000       0.293792         7.9945 
 166   0.0000       0.301655         8.2085 
 167   0.0000       0.307913         8.3787 
 168   0.0000       0.310781         8.4568 
 169   0.0000       0.312336         8.4991 
 170   0.0000       0.327799         8.9199 
 171   0.0000       0.330701         8.9988 
 172   0.0000       0.348474         9.4825 
 173   0.0000       0.350159         9.5283 
 174   0.0000       0.353298         9.6137 
 175   0.0000       0.355156         9.6643 
 176   0.0000       0.357793         9.7360 
 177   0.0000       0.363342         9.8870 
 178   0.0000       0.369763        10.0618 
 179   0.0000       0.370792        10.0898 
 180   0.0000       0.377878        10.2826 
 181   0.0000       0.380415        10.3516 
 182   0.0000       0.387033        10.5317 
 183   0.0000       0.398546        10.8450 
 184   0.0000       0.402427        10.9506 
 185   0.0000       0.415507        11.3065 
 186   0.0000       0.422224        11.4893 
 187   0.0000       0.427405        11.6303 
 188   0.0000       0.445693        12.1279 
 189   0.0000       0.449760        12.2386 
 190   0.0000       0.461393        12.5551 
 191   0.0000       0.485375        13.2077 
 192   0.0000       0.485645        13.2151 
 193   0.0000       0.486881        13.2487 
 194   0.0000       0.497708        13.5433 
 195   0.0000       0.502112        13.6632 
 196   0.0000       0.506801        13.7908 
 197   0.0000       0.507991        13.8231 
 198   0.0000       0.511180        13.9099 
 199   0.0000       0.513679        13.9779 
 200   0.0000       0.518152        14.0996 
 201   0.0000       0.535831        14.5807 
 202   0.0000       0.538809        14.6617 
 203   0.0000       0.543377        14.7860 
 204   0.0000       0.544806        14.8249 
 205   0.0000       0.551470        15.0063 
 206   0.0000       0.552368        15.0307 
 207   0.0000       0.553529        15.0623 
 208   0.0000       0.557516        15.1708 
 209   0.0000       0.565501        15.3881 
 210   0.0000       0.568023        15.4567 
 211   0.0000       0.578755        15.7487 
 212   0.0000       0.583264        15.8714 
 213   0.0000       0.588744        16.0205 
 214   0.0000       0.591170        16.0866 
 215   0.0000       0.592529        16.1235 
 216   0.0000       0.595273        16.1982 
 217   0.0000       0.596899        16.2425 
 218   0.0000       0.609605        16.5882 
 219   0.0000       0.612726        16.6731 
 220   0.0000       0.614598        16.7241 
 221   0.0000       0.615454        16.7474 
 222   0.0000       0.619299        16.8520 
 223   0.0000       0.620885        16.8951 
 224   0.0000       0.628447        17.1009 
 225   0.0000       0.638758        17.3815 
 226   0.0000       0.638839        17.3837 
 227   0.0000       0.639210        17.3938 
 228   0.0000       0.640381        17.4257 
 229   0.0000       0.644856        17.5474 
 230   0.0000       0.654827        17.8188 
 231   0.0000       0.660199        17.9649 
 232   0.0000       0.667533        18.1645 
 233   0.0000       0.669265        18.2116 
 234   0.0000       0.671273        18.2663 
 235   0.0000       0.671481        18.2719 
 236   0.0000       0.674316        18.3491 
 237   0.0000       0.687242        18.7008 
 238   0.0000       0.687983        18.7210 
 239   0.0000       0.688135        18.7251 
 240   0.0000       0.688768        18.7423 
 241   0.0000       0.695410        18.9231 
 242   0.0000       0.706734        19.2312 
 243   0.0000       0.709733        19.3128 
 244   0.0000       0.720580        19.6080 
 245   0.0000       0.720788        19.6136 
 246   0.0000       0.724527        19.7154 
 247   0.0000       0.730678        19.8828 
 248   0.0000       0.731901        19.9160 
 249   0.0000       0.736390        20.0382 
 250   0.0000       0.747960        20.3530 
 251   0.0000       0.755980        20.5713 
 252   0.0000       0.757071        20.6009 
 253   0.0000       0.764093        20.7920 
 254   0.0000       0.766401        20.8548 
 255   0.0000       0.767820        20.8934 
 256   0.0000       0.788998        21.4697 
 257   0.0000       0.792289        21.5593 
 258   0.0000       0.800742        21.7893 
 259   0.0000       0.812523        22.1099 
 260   0.0000       0.849392        23.1131 
 261   0.0000       0.879764        23.9396 
 262   0.0000       0.894693        24.3458 
 263   0.0000       0.906904        24.6781 
 264   0.0000       0.913681        24.8625 
 265   0.0000       0.918706        24.9993 
 266   0.0000       0.921467        25.0744 
 267   0.0000       0.922016        25.0893 
 268   0.0000       0.929716        25.2989 
 269   0.0000       0.938878        25.5482 
 270   0.0000       0.945368        25.7248 
 271   0.0000       0.949553        25.8386 
 272   0.0000       0.953504        25.9462 
 273   0.0000       0.960416        26.1342 
 274   0.0000       0.964364        26.2417 
 275   0.0000       0.973771        26.4976 
 276   0.0000       0.979521        26.6541 
 277   0.0000       0.993650        27.0386 
 278   0.0000       0.995738        27.0954 
 279   0.0000       0.998323        27.1658 
 280   0.0000       1.004851        27.3434 
 281   0.0000       1.007679        27.4204 
 282   0.0000       1.007865        27.4254 
 283   0.0000       1.020776        27.7767 
 284   0.0000       1.023051        27.8386 
 285   0.0000       1.040183        28.3048 
 286   0.0000       1.041462        28.3396 
 287   0.0000       1.051941        28.6248 
 288   0.0000       1.061054        28.8727 
 289   0.0000       1.065714        28.9996 
 290   0.0000       1.067297        29.0426 
 291   0.0000       1.082657        29.4606 
 292   0.0000       1.091115        29.6908 
 293   0.0000       1.096540        29.8384 
 294   0.0000       1.104010        30.0416 
 295   0.0000       1.108039        30.1513 
 296   0.0000       1.123822        30.5808 
 297   0.0000       1.124600        30.6019 
 298   0.0000       1.135658        30.9028 
 299   0.0000       1.142073        31.0774 
 300   0.0000       1.154820        31.4242 
 301   0.0000       1.159589        31.5540 
 302   0.0000       1.171663        31.8826 
 303   0.0000       1.176440        32.0126 
 304   0.0000       1.182597        32.1801 
 305   0.0000       1.191415        32.4200 
 306   0.0000       1.197664        32.5901 
 307   0.0000       1.203771        32.7563 
 308   0.0000       1.212628        32.9973 
 309   0.0000       1.219383        33.1811 
 310   0.0000       1.225375        33.3441 
 311   0.0000       1.229859        33.4662 
 312   0.0000       1.234624        33.5958 
 313   0.0000       1.240467        33.7548 
 314   0.0000       1.247184        33.9376 
 315   0.0000       1.260120        34.2896 
 316   0.0000       1.267746        34.4971 
 317   0.0000       1.295052        35.2401 
 318   0.0000       1.316751        35.8306 
 319   0.0000       1.318761        35.8853 
 320   0.0000       1.340856        36.4865 
 321   0.0000       1.384288        37.6684 
 322   0.0000       1.392380        37.8886 
 323   0.0000       1.422149        38.6986 
 324   0.0000       1.447896        39.3992 
 325   0.0000       1.463880        39.8342 
 326   0.0000       1.465430        39.8764 
 327   0.0000       1.471005        40.0281 
 328   0.0000       1.498854        40.7859 
 329   0.0000       1.502597        40.8877 
 330   0.0000       1.515071        41.2272 
 331   0.0000       1.528844        41.6019 
 332   0.0000       1.546689        42.0875 
 333   0.0000       1.547886        42.1201 
 334   0.0000       1.555225        42.3198 
 335   0.0000       1.580689        43.0127 
 336   0.0000       1.583634        43.0929 
 337   0.0000       1.606546        43.7163 
 338   0.0000       1.611393        43.8482 
 339   0.0000       1.612410        43.8759 
 340   0.0000       1.621742        44.1298 
 341   0.0000       1.630648        44.3722 
 342   0.0000       1.649710        44.8909 
 343   0.0000       1.664751        45.3002 
 344   0.0000       1.692508        46.0555 
 345   0.0000       1.697953        46.2037 
 346   0.0000       1.717090        46.7244 
 347   0.0000       1.723039        46.8863 
 348   0.0000       1.724654        46.9302 
 349   0.0000       1.726737        46.9869 
 350   0.0000       1.764862        48.0243 
 351   0.0000       1.780594        48.4524 
 352   0.0000       1.786783        48.6208 
 353   0.0000       1.787082        48.6290 
 354   0.0000       1.796319        48.8803 
 355   0.0000       1.807281        49.1786 
 356   0.0000       1.833810        49.9005 
 357   0.0000       1.843534        50.1651 
 358   0.0000       1.844313        50.1863 
 359   0.0000       1.852319        50.4042 
 360   0.0000       1.877865        51.0993 
 361   0.0000       1.888868        51.3987 
 362   0.0000       1.891835        51.4794 
 363   0.0000       1.901575        51.7445 
 364   0.0000       1.927049        52.4377 
 365   0.0000       1.942093        52.8470 
 366   0.0000       1.957823        53.2751 
 367   0.0000       1.960411        53.3455 
 368   0.0000       1.976222        53.7757 
 369   0.0000       1.984960        54.0135 
 370   0.0000       1.989624        54.1404 
 371   0.0000       1.991504        54.1916 
 372   0.0000       1.999467        54.4083 
 373   0.0000       2.012981        54.7760 
 374   0.0000       2.017778        54.9065 
 375   0.0000       2.024302        55.0840 
 376   0.0000       2.042744        55.5859 
 377   0.0000       2.043974        55.6194 
 378   0.0000       2.059238        56.0347 
 379   0.0000       2.065294        56.1995 
 380   0.0000       2.068347        56.2826 
 381   0.0000       2.100240        57.1504 
 382   0.0000       2.100597        57.1601 
 383   0.0000       2.147569        58.4383 
 384   0.0000       2.171470        59.0887 
 385   0.0000       2.186062        59.4858 
 386   0.0000       2.196996        59.7833 
 387   0.0000       2.198528        59.8250 
 388   0.0000       2.238124        60.9024 
 389   0.0000       2.264519        61.6207 
 390   0.0000       2.273863        61.8749 
 391   0.0000       2.276583        61.9490 
 392   0.0000       2.289404        62.2978 
 393   0.0000       2.314912        62.9920 
 394   0.0000       2.358494        64.1779 
 395   0.0000       2.362936        64.2988 
 396   0.0000       2.378697        64.7276 
 397   0.0000       2.384815        64.8941 
 398   0.0000       2.396840        65.2213 
 399   0.0000       2.413915        65.6860 
 400   0.0000       2.431129        66.1544 
 401   0.0000       2.446953        66.5850 
 402   0.0000       2.472153        67.2707 
 403   0.0000       2.482043        67.5398 
 404   0.0000       2.510696        68.3195 
 405   0.0000       2.532060        68.9008 
 406   0.0000       2.547117        69.3106 
 407   0.0000       2.566304        69.8327 
 408   0.0000       2.572215        69.9935 
 409   0.0000       2.574638        70.0595 
 410   0.0000       2.622967        71.3746 
 411   0.0000       2.625003        71.4300 
 412   0.0000       2.627665        71.5024 
 413   0.0000       2.642746        71.9128 
 414   0.0000       2.647158        72.0328 
 415   0.0000       2.681713        72.9731 
 416   0.0000       2.685976        73.0891 
 417   0.0000       2.706534        73.6485 
 418   0.0000       2.726665        74.1963 
 419   0.0000       2.735208        74.4288 
 420   0.0000       2.747727        74.7695 
 421   0.0000       2.752805        74.9076 
 422   0.0000       2.777048        75.5673 
 423   0.0000       2.788811        75.8874 
 424   0.0000       2.836454        77.1838 
 425   0.0000       2.842280        77.3424 
 426   0.0000       2.848850        77.5211 
 427   0.0000       2.860027        77.8253 
 428   0.0000       2.875434        78.2445 
 429   0.0000       2.882546        78.4381 
 430   0.0000       2.888737        78.6065 
 431   0.0000       2.894171        78.7544 
 432   0.0000       2.915269        79.3285 
 433   0.0000       2.923049        79.5402 
 434   0.0000       2.925843        79.6162 
 435   0.0000       2.934012        79.8385 
 436   0.0000       2.935416        79.8767 
 437   0.0000       2.940997        80.0286 
 438   0.0000       2.946794        80.1863 
 439   0.0000       2.958689        80.5100 
 440   0.0000       2.966211        80.7147 
 441   0.0000       2.969767        80.8115 
 442   0.0000       2.981930        81.1424 
 443   0.0000       2.982138        81.1481 
 444   0.0000       2.987913        81.3053 
 445   0.0000       2.996026        81.5260 
 446   0.0000       3.030658        82.4684 
 447   0.0000       3.040238        82.7291 
 448   0.0000       3.047045        82.9143 
 449   0.0000       3.057455        83.1976 
 450   0.0000       3.065763        83.4237 
 451   0.0000       3.079746        83.8042 
 452   0.0000       3.123796        85.0028 
 453   0.0000       3.124861        85.0318 
 454   0.0000       3.175361        86.4060 
 455   0.0000       3.188995        86.7770 
 456   0.0000       3.231677        87.9384 
 457   0.0000       3.246785        88.3495 
 458   0.0000       3.266782        88.8937 
 459   0.0000       3.296319        89.6974 
 460   0.0000       3.301396        89.8356 
 461   0.0000       3.323551        90.4384 
 462   0.0000       3.351435        91.1972 
 463   0.0000       3.374317        91.8198 
 464   0.0000       3.384780        92.1045 
 465   0.0000       3.391975        92.3003 
 466   0.0000       3.404793        92.6491 
 467   0.0000       3.429878        93.3317 
 468   0.0000       3.447044        93.7988 
 469   0.0000       3.457625        94.0868 
 470   0.0000       3.524046        95.8942 
 471   0.0000       3.537200        96.2521 
 472   0.0000       3.541039        96.3566 
 473   0.0000       3.544346        96.4466 
 474   0.0000       3.575581        97.2965 
 475   0.0000       3.609371        98.2160 
 476   0.0000       3.665210        99.7354 
 477   0.0000       3.734034       101.6082 
 478   0.0000       3.752367       102.1071 
 479   0.0000       3.769664       102.5778 
 480   0.0000       3.777103       102.7802 
 481   0.0000       3.936755       107.1245 
 482   0.0000       3.983073       108.3849 
 483   0.0000       4.042724       110.0081 
 484   0.0000       4.129825       112.3782 
 485   0.0000       4.255645       115.8020 
 486   0.0000       4.417032       120.1935 
 487   0.0000       4.514694       122.8511 
 488   0.0000       4.666535       126.9829 
 489   0.0000       4.689972       127.6206 
 490   0.0000       4.691146       127.6526 
 491   0.0000       4.740936       129.0074 
 492   0.0000       4.741817       129.0314 
 493   0.0000       4.798310       130.5686 
 494   0.0000      23.121682       629.1730 
 495   0.0000      23.386417       636.3768 
 496   0.0000      23.429431       637.5472 
 497   0.0000      23.585100       641.7832 
 498   0.0000      23.603345       642.2797 
 499   0.0000      23.610474       642.4737 
 500   0.0000      23.670610       644.1100 
 501   0.0000      23.756876       646.4575 
 502   0.0000      23.865707       649.4189 
 503   0.0000      23.959290       651.9654 
 504   0.0000      23.978398       652.4854 
 505   0.0000      23.999586       653.0619 
 506   0.0000      24.003430       653.1665 
 507   0.0000      24.023271       653.7065 
 508   0.0000      24.026365       653.7906 
 509   0.0000      24.034640       654.0158 
 510   0.0000      24.060005       654.7060 
 511   0.0000      24.087616       655.4573 
 512   0.0000      24.492698       666.4802 
 513   0.0000      24.579318       668.8372 
 514   0.0000      24.606840       669.5862 
 515   0.0000      24.610735       669.6921 
 516   0.0000      24.748468       673.4401 
 517   0.0000      24.754833       673.6132 
 518   0.0000       0.000000         0.0000 
 519   0.0000       0.000000         0.0000 
 520   0.0000       0.000000         0.0000 
 521   0.0000       0.000000         0.0000 
 522   0.0000       0.000000         0.0000 
 523   0.0000       0.000000         0.0000 
 524   0.0000       0.000000         0.0000 
 525   0.0000       0.000000         0.0000 
 526   0.0000       0.000000         0.0000 
 527   0.0000       0.000000         0.0000 

                 SPIN DOWN ORBITALS
  NO   OCC          E(Eh)            E(eV) 
   0   1.0000     -10.274264      -279.5769 
   1   1.0000     -10.274110      -279.5727 
   2   1.0000     -10.270087      -279.4633 
   3   1.0000     -10.269893      -279.4580 
   4   1.0000     -10.266939      -279.3776 
   5   1.0000     -10.264775      -279.3187 
   6   1.0000     -10.254059      -279.0271 
   7   1.0000     -10.253153      -279.0025 
   8   1.0000     -10.239446      -278.6295 
   9   1.0000     -10.239220      -278.6233 
  10   1.0000     -10.226231      -278.2699 
  11   1.0000     -10.225759      -278.2571 
  12   1.0000     -10.224003      -278.2093 
  13   1.0000     -10.223858      -278.2053 
  14   1.0000     -10.223535      -278.1965 
  15   1.0000     -10.221826      -278.1500 
  16   1.0000     -10.221776      -278.1487 
  17   1.0000     -10.221754      -278.1481 
  18   1.0000     -10.221613      -278.1442 
  19   1.0000     -10.220476      -278.1133 
  20   1.0000     -10.220245      -278.1070 
  21   1.0000     -10.213073      -277.9118 
  22   1.0000     -10.212920      -277.9077 
  23   1.0000     -10.212489      -277.8959 
  24   1.0000      -0.960628       -26.1400 
  25   1.0000      -0.931563       -25.3491 
  26   1.0000      -0.914697       -24.8902 
  27   1.0000      -0.887909       -24.1612 
  28   1.0000      -0.860041       -23.4029 
  29   1.0000      -0.859998       -23.4017 
  30   1.0000      -0.832417       -22.6512 
  31   1.0000      -0.807672       -21.9779 
  32   1.0000      -0.786593       -21.4043 
  33   1.0000      -0.769360       -20.9353 
  34   1.0000      -0.760379       -20.6910 
  35   1.0000      -0.738144       -20.0859 
  36   1.0000      -0.692439       -18.8422 
  37   1.0000      -0.687207       -18.6999 
  38   1.0000      -0.674695       -18.3594 
  39   1.0000      -0.642423       -17.4812 
  40   1.0000      -0.599412       -16.3108 
  41   1.0000      -0.591716       -16.1014 
  42   1.0000      -0.588327       -16.0092 
  43   1.0000      -0.580501       -15.7962 
  44   1.0000      -0.561237       -15.2720 
  45   1.0000      -0.544444       -14.8151 
  46   1.0000      -0.531150       -14.4533 
  47   1.0000      -0.526696       -14.3321 
  48   1.0000      -0.505021       -13.7423 
  49   1.0000      -0.480707       -13.0807 
  50   1.0000      -0.475455       -12.9378 
  51   1.0000      -0.469809       -12.7841 
  52   1.0000      -0.459645       -12.5076 
  53   1.0000      -0.441327       -12.0091 
  54   1.0000      -0.431545       -11.7429 
  55   1.0000      -0.428025       -11.6471 
  56   1.0000      -0.421842       -11.4789 
  57   1.0000      -0.394527       -10.7356 
  58   1.0000      -0.380273       -10.3478 
  59   1.0000      -0.371974       -10.1219 
  60   1.0000      -0.330471        -8.9926 
  61   1.0000      -0.320698        -8.7266 
  62   1.0000      -0.317481        -8.6391 
  63   1.0000      -0.315428        -8.5832 
  64   1.0000      -0.311809        -8.4848 
  65   1.0000      -0.309957        -8.4344 
  66   1.0000      -0.303803        -8.2669 
  67   1.0000      -0.301165        -8.1951 
  68   1.0000      -0.296578        -8.0703 
  69   1.0000      -0.272997        -7.4286 
  70   1.0000      -0.263972        -7.1830 
  71   1.0000      -0.226189        -6.1549 
  72   0.0000      -0.137729        -3.7478 
  73   0.0000      -0.131378        -3.5750 
  74   0.0000      -0.123114        -3.3501 
  75   0.0000      -0.115513        -3.1433 
  76   0.0000      -0.098719        -2.6863 
  77   0.0000      -0.096552        -2.6273 
  78   0.0000      -0.093740        -2.5508 
  79   0.0000      -0.086283        -2.3479 
  80   0.0000      -0.066929        -1.8212 
  81   0.0000      -0.047539        -1.2936 
  82   0.0000       0.003886         0.1058 
  83   0.0000       0.013291         0.3617 
  84   0.0000       0.015222         0.4142 
  85   0.0000       0.023688         0.6446 
  86   0.0000       0.024475         0.6660 
  87   0.0000       0.031594         0.8597 
  88   0.0000       0.035931         0.9777 
  89   0.0000       0.040346         1.0979 
  90   0.0000       0.040971         1.1149 
  91   0.0000       0.043186         1.1751 
  92   0.0000       0.048853         1.3294 
  93   0.0000       0.051620         1.4046 
  94   0.0000       0.056850         1.5470 
  95   0.0000       0.058476         1.5912 
  96   0.0000       0.063156         1.7186 
  97   0.0000       0.066395         1.8067 
  98   0.0000       0.071955         1.9580 
  99   0.0000       0.074065         2.0154 
 100   0.0000       0.082538         2.2460 
 101   0.0000       0.082778         2.2525 
 102   0.0000       0.083272         2.2659 
 103   0.0000       0.085867         2.3366 
 104   0.0000       0.096724         2.6320 
 105   0.0000       0.102642         2.7930 
 106   0.0000       0.102852         2.7988 
 107   0.0000       0.110375         3.0035 
 108   0.0000       0.110680         3.0118 
 109   0.0000       0.111149         3.0245 
 110   0.0000       0.115230         3.1356 
 111   0.0000       0.120988         3.2923 
 112   0.0000       0.123142         3.3509 
 113   0.0000       0.131348         3.5742 
 114   0.0000       0.133623         3.6361 
 115   0.0000       0.139200         3.7878 
 116   0.0000       0.140233         3.8159 
 117   0.0000       0.142175         3.8688 
 118   0.0000       0.143214         3.8971 
 119   0.0000       0.145995         3.9727 
 120   0.0000       0.146861         3.9963 
 121   0.0000       0.152028         4.1369 
 122   0.0000       0.163296         4.4435 
 123   0.0000       0.167741         4.5645 
 124   0.0000       0.172991         4.7073 
 125   0.0000       0.174106         4.7377 
 126   0.0000       0.174951         4.7607 
 127   0.0000       0.178839         4.8664 
 128   0.0000       0.179214         4.8766 
 129   0.0000       0.179231         4.8771 
 130   0.0000       0.188330         5.1247 
 131   0.0000       0.188869         5.1394 
 132   0.0000       0.194283         5.2867 
 133   0.0000       0.196792         5.3550 
 134   0.0000       0.201068         5.4713 
 135   0.0000       0.201534         5.4840 
[...]
 761   71244.6    140.4      0.00210   0.00162  -0.00051  -0.00063
 762   71254.4    140.3     -0.00047   0.00003   0.00001   0.00135
 763   71271.8    140.3     -0.00018   0.01456   0.00917   0.00002
 764   71298.3    140.3     -0.00032   0.00001   0.00001  -0.00038
 765   71327.4    140.2      0.00096   0.04018   0.02419   0.00002
 766   71355.1    140.1     -0.00125  -0.09669  -0.05508  -0.00002
 767   71380.6    140.1      0.00085  -0.06540   0.10121   0.00065
 768   71389.9    140.1      0.01378   0.00016  -0.00026  -0.15398
 769   71394.4    140.1     -0.00553   0.08550  -0.15295   0.00065
 770   71428.0    140.0      0.00047   0.06741  -0.10742  -0.00016
 771   71453.4    140.0      0.00014  -0.00006  -0.00002   0.00018
 772   71478.4    139.9     -0.00435  -0.00042  -0.00024  -0.00417
 773   71485.9    139.9     -0.04940   0.00056   0.00033   0.06336
 774   71486.7    139.9      0.04059   0.16308   0.09600  -0.00009
 775   71511.1    139.8      0.00573  -0.17075  -0.10475  -0.00008
 776   71549.5    139.8     -0.00061   0.01654   0.00869  -0.00001
 777   71550.7    139.8      0.00359   0.00021   0.00019  -0.01336
 778   71588.9    139.7     -0.00039   0.00002   0.00014  -0.19513
 779   71618.2    139.6     -0.00023  -0.00001  -0.00007   0.07018
 780   71638.9    139.6     -0.00004  -0.00003  -0.00001  -0.00871
 781   71652.6    139.6     -0.00262   0.00006   0.00017  -0.13081
 782   71657.1    139.6      0.00203  -0.05289  -0.03225  -0.00020
 783   71681.9    139.5     -0.00258  -0.00004   0.00027  -0.20788
 784   71758.0    139.4     -0.00005   0.00002   0.00001  -0.00311
 785   71808.2    139.3      0.00017  -0.00280  -0.00755   0.00019
 786   71851.9    139.2      0.00000  -0.00031  -0.00019  -0.00006
 787   71870.3    139.1      0.00069   0.12991   0.07713   0.00008
 788   71889.2    139.1     -0.00045  -0.00002   0.00005  -0.00771
 789   71925.9    139.0     -0.00004   0.01448   0.00917  -0.00001
 790   71929.5    139.0     -0.00021  -0.00012  -0.00007  -0.00115
 791   72041.1    138.8     -0.00001  -0.00110  -0.00439   0.00018
 792   72109.9    138.7      0.00112   0.00005   0.00002   0.00802
 793   72118.9    138.7      0.00170   0.01224   0.00707  -0.00005
 794   72126.7    138.6     -0.00199   0.00003  -0.00007   0.05957
 795   72138.5    138.6      0.00449   0.00006  -0.00086   0.72646
 796   72165.4    138.6      0.00030   0.01151  -0.02013  -0.00249
 797   72184.4    138.5     -0.00027  -0.00737   0.01351   0.00012
 798   72228.9    138.4     -0.00075   0.00002  -0.00001   0.03899
 799   72238.1    138.4      0.00073   0.00003   0.00026  -0.28663
 800   72302.5    138.3     -0.00002   0.00001  -0.00000   0.01187
 801   72340.9    138.2      0.00063  -0.00002  -0.00003   0.10672
 802   72342.3    138.2     -0.00139   0.00027  -0.00046   0.03727
 803   72344.1    138.2      0.00202  -0.08086   0.13403   0.00025
 804   72354.6    138.2     -0.00120   0.02086   0.02519  -0.00009
 805   72402.9    138.1     -0.00004  -0.00010   0.00004   0.10212
 806   72415.5    138.1     -0.00048  -0.04671  -0.02406  -0.00007
 807   72483.5    138.0     -0.00003   0.00003  -0.00003   0.01209
 808   72510.6    137.9     -0.00359  -0.00063  -0.00034  -0.00313
 809   72518.3    137.9      0.00427  -0.06843  -0.03743  -0.00002
 810   72566.4    137.8      0.00007  -0.00004   0.00004  -0.00888
 811   72567.6    137.8     -0.00092   0.00004  -0.00012   0.01984
 812   72589.0    137.8      0.00102   0.06225  -0.10670  -0.00021
 813   72636.6    137.7     -0.00007   0.06760  -0.11856  -0.00014
 814   72675.7    137.6     -0.00155   0.00009  -0.00000   0.00188
 815   72689.3    137.6      0.00466  -0.07386   0.11458   0.00070
 816   72705.7    137.5      0.00946   0.00006  -0.00058   0.42105
 817   72706.8    137.5     -0.01473   0.06679   0.03632   0.00028
 818   72719.2    137.5      0.00065  -0.00010  -0.00009   0.00253
 819   72768.3    137.4      0.00297   0.05138   0.01849   0.00007
 820   72788.2    137.4     -0.00193  -0.00109   0.00185   0.05543
 821   72795.3    137.4      0.00184   0.07615  -0.13863   0.00075
 822   72806.0    137.4     -0.00324   0.00004  -0.00011  -0.00039
 823   72806.9    137.3      0.00523  -0.02764   0.05551  -0.00016
 824   72834.5    137.3     -0.00743   0.00001  -0.00004  -0.01108
 825   72841.9    137.3      0.00060  -0.00005  -0.00013   0.21885
 826   72866.6    137.2     -0.00062  -0.01252  -0.00722   0.00006
 827   72924.4    137.1      0.00006  -0.00843   0.01386  -0.00003
 828   72975.2    137.0     -0.00002  -0.03933   0.06161   0.00006
 829   73005.1    137.0     -0.00013   0.03140   0.01899   0.00005
 830   73057.0    136.9     -0.00153  -0.00003   0.00001  -0.00516
 831   73060.8    136.9      0.00419   0.01970  -0.03694  -0.00000
 832   73102.7    136.8      0.00019   0.01090   0.00641  -0.00001
 833   73124.4    136.8     -0.00012   0.00007   0.00004  -0.00463
 834   73133.2    136.7     -0.00781   0.00006   0.00026  -0.30937
 835   73144.0    136.7      0.00668  -0.08570  -0.05246  -0.00016
 836   73170.4    136.7     -0.00153  -0.00025   0.00023   0.18358
 837   73174.5    136.7      0.00268   0.02914  -0.04680   0.00218
 838   73224.3    136.6     -0.00098  -0.02106   0.03410  -0.00005
 839   73269.6    136.5     -0.00016  -0.00000  -0.00008   0.08764
 840   73305.8    136.4      0.00028   0.00002   0.00000   0.01474
 841   73334.1    136.4     -0.00123  -0.00003  -0.00020   0.22556
 842   73361.2    136.3      0.00007  -0.00001  -0.00014   0.16374
 843   73368.9    136.3      0.00049  -0.00001  -0.00000   0.00306
 844   73416.4    136.2     -0.00011  -0.00220   0.00436  -0.00010
 845   73453.4    136.1     -0.00081  -0.00000  -0.00000   0.00296
 846   73470.8    136.1      0.00099  -0.01445  -0.00921  -0.00002
 847   73527.2    136.0     -0.00014  -0.00247  -0.00165   0.00000
 848   73575.8    135.9      0.00037  -0.00003  -0.00002   0.05757
 849   73598.6    135.9     -0.00306  -0.00005  -0.00000   0.00732
 850   73633.8    135.8      0.00004  -0.00239   0.00384   0.00007
 851   73655.4    135.8      0.00064   0.04310  -0.07340  -0.00016
 852   73658.0    135.8      0.00030  -0.00009   0.00030  -0.13713
 853   73714.4    135.7     -0.00056   0.00001   0.00014  -0.17521
 854   73740.2    135.6     -0.00017  -0.00752   0.01020   0.00018
 855   73744.2    135.6      0.00148  -0.00005  -0.00007   0.02505
 856   73780.1    135.5      0.00038   0.00000   0.00015  -0.14341
 857   73799.3    135.5      0.00031  -0.07566  -0.04422  -0.00003
 858   73870.2    135.4     -0.00006  -0.01028   0.01347  -0.00010
 859   73900.2    135.3      0.00334  -0.00002  -0.00035   0.33102
 860   73915.6    135.3     -0.00061   0.00078  -0.00818  -0.00052
 861   73925.2    135.3     -0.00064   0.00011   0.00008  -0.01535
 862   73950.0    135.2      0.00185   0.04448   0.02879  -0.00000
 863   73953.1    135.2     -0.00285   0.00090   0.00057   0.00694
 864   73962.7    135.2     -0.00366  -0.14052  -0.08413  -0.00007
 865   73993.5    135.1      0.00225   0.00003  -0.00009   0.09589
 866   74021.4    135.1      0.00206  -0.12198  -0.07366  -0.00013
 867   74029.3    135.1     -0.00477  -0.00052  -0.00033   0.00504
 868   74044.3    135.1      0.00278   0.00003  -0.00002   0.06005
 869   74075.6    135.0      0.00016   0.00973  -0.01762   0.00025
 870   74078.6    135.0      0.00007  -0.00009   0.00012   0.02467
 871   74171.5    134.8     -0.00002  -0.06068  -0.03385  -0.00004
 872   74204.5    134.8     -0.00146   0.03747   0.01823   0.00003
 873   74240.9    134.7     -0.00006  -0.02184   0.03996   0.00009
 874   74273.0    134.6      0.00026  -0.00004  -0.00005   0.00301
 875   74309.4    134.6     -0.00068   0.00003  -0.00021   0.16959
 876   74340.0    134.5      0.00192  -0.00007  -0.00001   0.04851
 877   74358.9    134.5     -0.00692  -0.04839  -0.02847  -0.00026
 878   74360.8    134.5      0.00769   0.00086   0.00046  -0.01333
 879   74376.8    134.5     -0.00057  -0.03299   0.03074   0.00002
 880   74399.7    134.4     -0.00083  -0.13884  -0.07597  -0.00006
 881   74435.9    134.3     -0.00135   0.11736  -0.21159  -0.00039
 882   74442.0    134.3     -0.00115  -0.00031   0.00049  -0.08188
 883   74469.4    134.3     -0.00009   0.00003   0.00007  -0.00853
 884   74484.8    134.3     -0.00041   0.01093   0.00910  -0.00002
 885   74519.4    134.2      0.00059  -0.00004  -0.00007   0.07696
 886   74527.5    134.2      0.00101   0.04061   0.03601   0.00009
 887   74563.5    134.1     -0.00042  -0.05608   0.08265   0.00017
 888   74589.8    134.1     -0.00182  -0.00004   0.00002  -0.00642
 889   74610.0    134.0      0.14499  -0.00316   0.00650   0.03214
 890   74610.1    134.0     -0.14356  -0.00052   0.00130  -0.20112
 891   74629.9    134.0      0.00128  -0.00779  -0.00700  -0.00002
 892   74650.8    134.0     -0.00167  -0.00000  -0.00004   0.00766
 893   74673.3    133.9      0.00063  -0.03732  -0.02223  -0.00000
 894   74713.2    133.8      0.00001  -0.00002  -0.00001  -0.00181
 895   74714.3    133.8     -0.00024  -0.02729   0.05297   0.00002
 896   74784.3    133.7      0.00013   0.00909  -0.02748  -0.00036
 897   74791.4    133.7      0.00961   0.18115   0.10891  -0.00024
 898   74820.0    133.7     -0.00986  -0.00011   0.00058  -0.60597
 899   74863.4    133.6     -0.00007  -0.06499   0.06535   0.00010
 900   74877.6    133.6     -0.00010   0.15705   0.10595   0.00013
 901   74906.8    133.5     -0.00005  -0.00032  -0.00019   0.00111
 902   74929.3    133.5      0.00046   0.10561   0.06498   0.00009
 903   74974.2    133.4      0.00048  -0.00002  -0.00002   0.00180
 904   75033.7    133.3     -0.00041  -0.01145  -0.01655  -0.00002
 905   75040.9    133.3      0.00006   0.02115  -0.02501  -0.00007
 906   75063.6    133.2     -0.00735   0.00011   0.00007   0.00788
 907   75070.6    133.2      0.00868  -0.04446  -0.02615  -0.00000
 908   75087.1    133.2      0.00080  -0.00004  -0.00003   0.00055
 909   75108.6    133.1      0.00685  -0.21258  -0.12989  -0.00010
 910   75114.5    133.1     -0.00785  -0.00217  -0.00131  -0.00239
 911   75152.7    133.1     -0.00056  -0.04565  -0.02641  -0.00003
 912   75214.8    133.0     -0.00007  -0.00003   0.00001  -0.00098
 913   75268.8    132.9      0.00002  -0.00088   0.00114   0.00005
 914   75374.5    132.7      0.00229   0.00004  -0.00023   0.05396
 915   75382.1    132.7     -0.00216   0.00859  -0.02617  -0.00034
 916   75411.4    132.6      0.00036   0.00003   0.00004   0.04277
 917   75447.9    132.5     -0.00275   0.00001  -0.00003  -0.16359
 918   75457.8    132.5      0.00070   0.00009   0.00008   0.05099
 919   75463.7    132.5      0.00207  -0.11545  -0.07348   0.00010
 920   75470.7    132.5     -0.00092   0.01998  -0.03881   0.00007
 921   75474.8    132.5     -0.00180  -0.00000  -0.00003   0.00541
 922   75502.5    132.4      0.06362   0.00129   0.00210  -0.00108
 923   75503.4    132.4     -0.06069   0.03821   0.05884   0.00001
 924   75509.8    132.4     -0.00699   0.08830  -0.11093   0.00033
 925   75527.1    132.4     -0.00198   0.00006   0.00015   0.00623
 926   75535.3    132.4      0.00510  -0.00029   0.00032   0.07908
 927   75567.2    132.3      0.00002   0.00719  -0.00258   0.00000
 928   75598.8    132.3     -0.00022   0.02975   0.01613   0.00002
 929   75623.0    132.2     -0.00011  -0.00009  -0.00005   0.00607
 930   75656.3    132.2     -0.00987   0.00075   0.00037   0.01668
 931   75663.3    132.2      0.01625  -0.09840  -0.04611   0.00013
 932   75671.1    132.2      0.00126   0.07099  -0.13795  -0.00034
 933   75686.1    132.1      0.01257   0.00005   0.00031  -0.15182
 934   75695.4    132.1     -0.01652   0.00028  -0.00022   0.11019
 935   75761.6    132.0      0.00042   0.28484  -0.48701  -0.00050
 936   75858.6    131.8     -0.00116  -0.00005  -0.00008   0.17137
 937   75874.4    131.8     -0.00036  -0.00005   0.00000  -0.01113
 938   75895.4    131.8      0.00002   0.00158   0.00142  -0.00002
 939   75907.1    131.7     -0.00027  -0.00003  -0.00000  -0.00178
 940   75947.3    131.7      0.00054   0.03225  -0.05758  -0.00007
 941   75965.5    131.6      0.00123  -0.02381   0.04156  -0.00028
 942   75966.4    131.6     -0.00094  -0.00055   0.00094   0.01788
 943   76019.9    131.5     -0.00130   0.08348  -0.14268  -0.00008
 944   76050.4    131.5     -0.00111  -0.00006   0.00003  -0.00030
 945   76099.2    131.4      0.00213  -0.11001   0.19029   0.00016
 946   76170.3    131.3      0.00018  -0.00005   0.00005   0.04249
 947   76189.6    131.3      0.00227   0.12571  -0.21288  -0.00009
 948   76204.6    131.2      0.00440  -0.00001   0.00001   0.09678
 949   76208.1    131.2     -0.00353   0.00511   0.01874  -0.00031
 950   76217.3    131.2      0.00013   0.00534   0.00657   0.00003
 951   76246.6    131.2     -0.00145   0.00005  -0.00008  -0.00191
 952   76273.7    131.1     -0.00066   0.00001   0.00003  -0.05613
 953   76325.4    131.0     -0.00106  -0.01466   0.04793   0.00003
 954   76341.1    131.0      0.00020   0.01802  -0.02089   0.00001
 955   76357.5    131.0     -0.00231  -0.00004   0.00005   0.00168
 956   76362.5    131.0     -0.00037   0.18946  -0.32967  -0.00030
 957   76387.3    130.9     -0.00135  -0.06955  -0.05135  -0.00006
 958   76400.7    130.9      0.00214  -0.06875   0.01835   0.00002
 959   76423.6    130.8      0.00435  -0.00007   0.00011   0.00064
 960   76455.9    130.8      0.01213  -0.16177   0.27374   0.00029
 961   76461.7    130.8     -0.01059  -0.00008   0.00010  -0.00120
 962   76485.5    130.7     -0.00200  -0.00004   0.00003   0.00007
 963   76490.3    130.7     -0.00667   0.00035  -0.00036  -0.04329
 964   76553.9    130.6     -0.00040  -0.10254   0.14033   0.00009
 965   76575.1    130.6      0.00001  -0.00919  -0.01672  -0.00002
 966   76589.7    130.6     -0.00281   0.22857  -0.23230  -0.00019
 967   76624.7    130.5      0.00487   0.24605   0.20972   0.00025
 968   76665.3    130.4     -0.00238  -0.29223  -0.16343  -0.00021
 969   76675.8    130.4      0.00193  -0.05995  -0.12056  -0.00010
 970   76688.5    130.4      0.00083   0.03278  -0.07688  -0.00014
 971   76712.0    130.4      0.00567  -0.00036  -0.00014   0.01233
 972   76718.6    130.3     -0.00178  -0.00028   0.00001   0.01340
 973   76819.7    130.2     -0.00031  -0.00003   0.00006  -0.04517
 974   76839.1    130.1     -0.00042  -0.00002   0.00001   0.00492
 975   76865.4    130.1     -0.00272  -0.00018  -0.00008   0.16067
 976   76868.0    130.1      0.00048  -0.00004  -0.00003   0.01808
 977   76889.6    130.1      0.00004  -0.00008  -0.00004   0.00637
 978   76910.8    130.0     -0.00133   0.03898   0.02347  -0.00004
 979   76942.9    130.0      0.00005   0.00003   0.00013  -0.10800
 980   76946.1    130.0     -0.00048  -0.00004  -0.00003  -0.00399
 981   76976.5    129.9     -0.00061  -0.00011  -0.00005   0.06975
 982   76985.5    129.9     -0.00095   0.00004   0.00006  -0.05906
 983   77017.8    129.8     -0.00107  -0.08530  -0.05430  -0.00007
 984   77023.3    129.8      0.00017  -0.01658   0.00440  -0.00004
 985   77054.0    129.8     -0.00008   0.00002   0.00001   0.01235
 986   77068.8    129.8     -0.00047  -0.00014  -0.00007   0.00463
 987   77096.1    129.7      0.00056   0.01397  -0.02051  -0.00003
 988   77116.2    129.7     -0.00005  -0.00002   0.00003  -0.00017
 989   77132.7    129.6      0.00137  -0.01205   0.03681  -0.00000
 990   77155.1    129.6      0.01787  -0.00018  -0.00018   0.01603
 991   77163.5    129.6     -0.01453  -0.14592  -0.08411  -0.00015
 992   77187.6    129.6     -0.00118   0.04882   0.02614   0.00002
 993   77219.3    129.5      0.00638   0.29265   0.17732   0.00020
 994   77271.5    129.4     -0.00036  -0.00002   0.00004  -0.00044
 995   77293.5    129.4     -0.00127  -0.06224   0.10294   0.00020
 996   77310.8    129.3      0.00774   0.00010  -0.00025   0.06815
 997   77312.2    129.3     -0.01394   0.00013   0.00617  -0.00055
 998   77358.0    129.3      0.01063   0.00008  -0.00010  -0.00817
 999   77358.2    129.3     -0.00858   0.00004  -0.00017  -0.01055
 1000   77414.7    129.2     -0.00229   0.00001  -0.00003  -0.01408

Total run time:    28202.833 sec

           *** ORCA-CIS/TD-DFT FINISHED WITHOUT ERROR ***

Maximum memory used throughout the entire CIS-calculation: 3902.7 MB

-----------------------
CIS/TD-DFT TOTAL ENERGY
-----------------------

    E(SCF)  =   -913.473399774 Eh
    DE(CIS) =      0.046248256 Eh (Root  1)
    ----------------------------- ---------
    E(tot)  =   -913.427151518 Eh



-------------------------------------------------------------------------------
                          DFT DISPERSION CORRECTION                            
                                                                               
                                 DFTD4 V2.5                                    
-------------------------------------------------------------------------------
The B3LYP functional is recognized
Active option DFTDOPT                   ...         5   

Starting D4
-------------------------   ----------------
Dispersion correction           -0.087383011
-------------------------   ----------------


-------------------------   --------------------
FINAL SINGLE POINT ENERGY      -913.514534528091
-------------------------   --------------------


                            ***************************************
                            *     ORCA property calculations      *
                            ***************************************

                                    ---------------------
                                    Active property flags
                                    ---------------------
   (+) Dipole Moment


------------------------------------------------------------------------------
                       ORCA ELECTRIC PROPERTIES CALCULATION
------------------------------------------------------------------------------

Dipole Moment Calculation                       ... on
Quadrupole Moment Calculation                   ... off
Polarizability Calculation                      ... off
GBWName                                         ... Stone-Wales_defect_loss_all.gbw
Electron density                                ... Stone-Wales_defect_loss_all.scfp
The origin for moment calculation is the CENTER OF MASS  = (-0.005704,  0.020185  0.014117)

-------------
DIPOLE MOMENT
-------------
                                X             Y             Z
Electronic contribution:     -0.05809       0.09831       0.00009
Nuclear contribution   :     -0.00000      -0.00000       0.00000
                        -----------------------------------------
Total Dipole Moment    :     -0.05809       0.09831       0.00009
                        -----------------------------------------
Magnitude (a.u.)       :      0.11419
Magnitude (Debye)      :      0.29025



--------------------
Rotational spectrum 
--------------------
 
Rotational constants in cm-1:     0.014969     0.010008     0.005998 
Rotational constants in MHz :   448.744909   300.039996   179.813215 

 Dipole components along the rotational axes: 
x,y,z [a.u.] :     0.114189     0.000098    -0.000006 
x,y,z [Debye]:     0.290245     0.000250    -0.000015 

 

Timings for individual modules:

Sum of individual times         ...    30048.462 sec (= 500.808 min)
GTO integral calculation        ...        0.707 sec (=   0.012 min)   0.0 %
SCF iterations                  ...     1844.764 sec (=  30.746 min)   6.1 %
CIS module                      ...    28202.991 sec (= 470.050 min)  93.9 %
                             ****ORCA TERMINATED NORMALLY****
TOTAL RUN TIME: 0 days 8 hours 20 minutes 49 seconds 305 msec
