
                                 *****************
                                 * O   R   C   A *
                                 *****************

                                            #,                                       
                                            ###                                      
                                            ####                                     
                                            #####                                    
                                            ######                                   
                                           ########,                                 
                                     ,,################,,,,,                         
                               ,,#################################,,                 
                          ,,##########################################,,             
                       ,#########################################, ''#####,          
                    ,#############################################,,   '####,        
                  ,##################################################,,,,####,       
                ,###########''''           ''''###############################       
              ,#####''   ,,,,##########,,,,          '''####'''          '####       
            ,##' ,,,,###########################,,,                        '##       
           ' ,,###''''                  '''############,,,                           
         ,,##''                                '''############,,,,        ,,,,,,###''
      ,#''                                            '''#######################'''  
     '                                                          ''''####''''         
             ,#######,   #######,   ,#######,      ##                                
            ,#'     '#,  ##    ##  ,#'     '#,    #''#        ######   ,####,        
            ##       ##  ##   ,#'  ##            #'  '#       #        #'  '#        
            ##       ##  #######   ##           ,######,      #####,   #    #        
            '#,     ,#'  ##    ##  '#,     ,#' ,#      #,         ##   #,  ,#        
             '#######'   ##     ##  '#######'  #'      '#     #####' # '####'        



                  #######################################################
                  #                        -***-                        #
                  #          Department of theory and spectroscopy      #
                  #    Directorship and core code : Frank Neese         #
                  #        Max Planck Institute fuer Kohlenforschung    #
                  #                Kaiser Wilhelm Platz 1               #
                  #                 D-45470 Muelheim/Ruhr               #
                  #                      Germany                        #
                  #                                                     #
                  #                  All rights reserved                #
                  #                        -***-                        #
                  #######################################################



                         Program Version 5.0.4 -  RELEASE  -

 With contributions from (in alphabetic order):
   Daniel Aravena         : Magnetic Suceptibility
   Michael Atanasov       : Ab Initio Ligand Field Theory (pilot matlab implementation)
   Alexander A. Auer      : GIAO ZORA, VPT2 properties, NMR spectrum
   Ute Becker             : Parallelization
   Giovanni Bistoni       : ED, misc. LED, open-shell LED, HFLD
   Martin Brehm           : Molecular dynamics
   Dmytro Bykov           : SCF Hessian
   Vijay G. Chilkuri      : MRCI spin determinant printing, contributions to CSF-ICE
   Dipayan Datta          : RHF DLPNO-CCSD density
   Achintya Kumar Dutta   : EOM-CC, STEOM-CC
   Dmitry Ganyushin       : Spin-Orbit,Spin-Spin,Magnetic field MRCI
   Miquel Garcia          : C-PCM and meta-GGA Hessian, CC/C-PCM, Gaussian charge scheme
   Yang Guo               : DLPNO-NEVPT2, F12-NEVPT2, CIM, IAO-localization
   Andreas Hansen         : Spin unrestricted coupled pair/coupled cluster methods
   Benjamin Helmich-Paris : MC-RPA, TRAH-SCF, COSX integrals
   Lee Huntington         : MR-EOM, pCC
   Robert Izsak           : Overlap fitted RIJCOSX, COSX-SCS-MP3, EOM
   Marcus Kettner         : VPT2
   Christian Kollmar      : KDIIS, OOCD, Brueckner-CCSD(T), CCSD density, CASPT2, CASPT2-K
   Simone Kossmann        : Meta GGA functionals, TD-DFT gradient, OOMP2, MP2 Hessian
   Martin Krupicka        : Initial AUTO-CI
   Lucas Lang             : DCDCAS
   Marvin Lechner         : AUTO-CI (C++ implementation), FIC-MRCC
   Dagmar Lenk            : GEPOL surface, SMD
   Dimitrios Liakos       : Extrapolation schemes; Compound Job, initial MDCI parallelization
   Dimitrios Manganas     : Further ROCIS development; embedding schemes
   Dimitrios Pantazis     : SARC Basis sets
   Anastasios Papadopoulos: AUTO-CI, single reference methods and gradients
   Taras Petrenko         : DFT Hessian,TD-DFT gradient, ASA, ECA, R-Raman, ABS, FL, XAS/XES, NRVS
   Peter Pinski           : DLPNO-MP2, DLPNO-MP2 Gradient
   Christoph Reimann      : Effective Core Potentials
   Marius Retegan         : Local ZFS, SOC
   Christoph Riplinger    : Optimizer, TS searches, QM/MM, DLPNO-CCSD(T), (RO)-DLPNO pert. Triples
   Tobias Risthaus        : Range-separated hybrids, TD-DFT gradient, RPA, STAB
   Michael Roemelt        : Original ROCIS implementation
   Masaaki Saitow         : Open-shell DLPNO-CCSD energy and density
   Barbara Sandhoefer     : DKH picture change effects
   Avijit Sen             : IP-ROCIS
   Kantharuban Sivalingam : CASSCF convergence, NEVPT2, FIC-MRCI
   Bernardo de Souza      : ESD, SOC TD-DFT
   Georgi Stoychev        : AutoAux, RI-MP2 NMR, DLPNO-MP2 response
   Willem Van den Heuvel  : Paramagnetic NMR
   Boris Wezisla          : Elementary symmetry handling
   Frank Wennmohs         : Technical directorship


 We gratefully acknowledge several colleagues who have allowed us to
 interface, adapt or use parts of their codes:
   Stefan Grimme, W. Hujo, H. Kruse, P. Pracht,  : VdW corrections, initial TS optimization,
                  C. Bannwarth, S. Ehlert          DFT functionals, gCP, sTDA/sTD-DF
   Ed Valeev, F. Pavosevic, A. Kumar             : LibInt (2-el integral package), F12 methods
   Garnet Chan, S. Sharma, J. Yang, R. Olivares  : DMRG
   Ulf Ekstrom                                   : XCFun DFT Library
   Mihaly Kallay                                 : mrcc  (arbitrary order and MRCC methods)
   Jiri Pittner, Ondrej Demel                    : Mk-CCSD
   Frank Weinhold                                : gennbo (NPA and NBO analysis)
   Christopher J. Cramer and Donald G. Truhlar   : smd solvation model
   Lars Goerigk                                  : TD-DFT with DH, B97 family of functionals
   V. Asgeirsson, H. Jonsson                     : NEB implementation
   FAccTs GmbH                                   : IRC, NEB, NEB-TS, DLPNO-Multilevel, CI-OPT
                                                   MM, QMMM, 2- and 3-layer-ONIOM, Crystal-QMMM,
                                                   LR-CPCM, SF, NACMEs, symmetry and pop. for TD-DFT,
                                                   nearIR, NL-DFT gradient (VV10), updates on ESD,
                                                   ML-optimized integration grids
   S Lehtola, MJT Oliveira, MAL Marques          : LibXC Library
   Liviu Ungur et al                             : ANISO software


 Your calculation uses the libint2 library for the computation of 2-el integrals
 For citations please refer to: http://libint.valeyev.net

 Your ORCA version has been built with support for libXC version: 5.1.0
 For citations please refer to: https://tddft.org/programs/libxc/

 This ORCA versions uses:
   CBLAS   interface :  Fast vector & matrix operations
   LAPACKE interface :  Fast linear algebra routines
   Shared memory     :  Shared parallel matrices


Your calculation utilizes the atom-pairwise dispersion correction
based on tight binding partial charges (D4)
Cite in your paper:
E.Caldeweyher, C.Bannwarth, S.Grimme, J.Chem.Phys., (2017), 147, 034112.
E.Caldeweyher, S.Ehlert, A.Hansen, H.Neugebauer, S.Grimme, J.Chem.Phys., (2018), in progress.
   

================================================================================

----- Orbital basis set information -----
Your calculation utilizes the basis: 6-311+G**
   H, Li - Ne  : R. Krishnan, J. S. Binkley, R. Seeger and J. A. Pople, J. Chem. Phys. 72, 650 (1980).
   Na - Ar     : A. D. McLean and G. S. Chandler J. Chem. Phys. 72, 5639, (1980).
   K  - Ca     : J.-P. Blaudeau, M. P. McGrath, L. A. Curtiss and L. Radom, J. Chem. Phys. 107, 5016 (1997).
   Ga - Kr     : L. A. Curtiss, M. P. McGrath, J.-P. Blandeau, N. E. Davis, R. C. Binning and L. Radom, J. Chem. Phys. 103, 6104 (1995).
   Pol./Diff.
   H, Li - Cl  : T. Clark, J. Chandrasekhar and P. v. R. Schleyer, J. Comp. Chem. 4, 294 (1983).
   H - Ne      : M. J. Frisch, J. A. Pople and J. S. Binkley, J. Chem. Phys. 80, 3265 (1984).

----- AuxJ basis set information -----
Your calculation utilizes the auxiliary basis: def2/J
   F. Weigend, Phys. Chem. Chem. Phys. 8, 1057 (2006).

================================================================================
                                        WARNINGS
                       Please study these warnings very carefully!
================================================================================

INFO   : Checking CIS options ...

WARNING: CIS/ROCIS methods need fully converged wavefunctions
  ===> : Setting SCFConvForced true
         You can overwrite this default with %scf ConvForced false 


INFO   : the flag for use of the SHARK integral package has been found!

================================================================================
                                       INPUT FILE
================================================================================
NAME = loss_eight_seven_eleven_twelve_three_four_two_one_spectra.inp
|  1> !b3lyp 6-311+g** d4
|  2> 
|  3> %maxcore 5000
|  4> %pal
|  5> nprocs 8
|  6> end
|  7> 
|  8> %tddft
|  9>   nroots 1000
| 10>   end
| 11>   
| 12> * xyz 0 1
| 13>   C   2.38563257067293     -2.80896470388042     -0.00001293276846
| 14>   C   1.32513518026233     -3.43856909119664     -0.00004034767167
| 15>   C   0.03430161168417     -2.93352879445554     -0.00011246904013
| 16>   C   -1.25615999862344     -3.46212484936921     -0.00015425595494
| 17>   C   -2.30111120258552     -2.81438035036468     -0.00021962079492
| 18>   C   -2.50356590389742     -1.43045752950732     -0.00027167682387
| 19>   C   -3.72467793324503     -0.73280067677189     -0.00034687934997
| 20>   C   -3.73748294413923      0.63757885439878     -0.00038877495853
| 21>   C   -2.52838146465933      1.35477630939962     -0.00035607522704
| 22>   C   -2.34672559959412      2.74700783182244     -0.00039048803100
| 23>   C   -1.29066112167157      3.37354659858138     -0.00036243439127
| 24>   C   0.01889263006477      2.86788703799800     -0.00028985576826
| 25>   C   1.22697706796023      3.58680703610319     -0.00025939111115
| 26>   C   2.42429140377027      2.92008429546019     -0.00018840119487
| 27>   C   2.45307336065647      1.51399100554122     -0.00014457848073
| 28>   C   3.57260172387330      0.67516147819708     -0.00007013626701
| 29>   C   3.63973841093950     -0.55240177378359     -0.00002928067543
| 30>   C   2.55947164038255     -1.43378263490783     -0.00004923559846
| 31>   C   1.26429685846144     -0.72147893992175     -0.00012534764190
| 32>   C   1.23731746073363      0.72272752246253     -0.00017305297498
| 33>   C   -0.00564173195497      1.42041298775479     -0.00024677852890
| 34>   C   -1.24538806261078      0.68405599298829     -0.00027981463356
| 35>   C   -1.22712160270953     -0.74117183980094     -0.00023477358720
| 36>   C   0.02824947923193     -1.45573658376072     -0.00015931896494
| 37>   H   -4.64663384137248     -1.30010886135204     -0.00037157699867
| 38>   H   -4.66986960634854      1.18755531908654     -0.00044756545216
| 39>   H   1.18985754023164      4.66867187238172     -0.00029401255750
| 40>   H   3.36345546319358      3.45840020800585     -0.00016439645395
| 41> **                         ****END OF INPUT****
================================================================================

                       ****************************
                       * Single Point Calculation *
                       ****************************

---------------------------------
CARTESIAN COORDINATES (ANGSTROEM)
---------------------------------
  C      2.385633   -2.808965   -0.000013
  C      1.325135   -3.438569   -0.000040
  C      0.034302   -2.933529   -0.000112
  C     -1.256160   -3.462125   -0.000154
  C     -2.301111   -2.814380   -0.000220
  C     -2.503566   -1.430458   -0.000272
  C     -3.724678   -0.732801   -0.000347
  C     -3.737483    0.637579   -0.000389
  C     -2.528381    1.354776   -0.000356
  C     -2.346726    2.747008   -0.000390
  C     -1.290661    3.373547   -0.000362
  C      0.018893    2.867887   -0.000290
  C      1.226977    3.586807   -0.000259
  C      2.424291    2.920084   -0.000188
  C      2.453073    1.513991   -0.000145
  C      3.572602    0.675161   -0.000070
  C      3.639738   -0.552402   -0.000029
  C      2.559472   -1.433783   -0.000049
  C      1.264297   -0.721479   -0.000125
  C      1.237317    0.722728   -0.000173
  C     -0.005642    1.420413   -0.000247
  C     -1.245388    0.684056   -0.000280
  C     -1.227122   -0.741172   -0.000235
  C      0.028249   -1.455737   -0.000159
  H     -4.646634   -1.300109   -0.000372
  H     -4.669870    1.187555   -0.000448
  H      1.189858    4.668672   -0.000294
  H      3.363455    3.458400   -0.000164

----------------------------
CARTESIAN COORDINATES (A.U.)
----------------------------
  NO LB      ZA    FRAG     MASS         X           Y           Z
   0 C     6.0000    0    12.011    4.508192   -5.308174   -0.000024
   1 C     6.0000    0    12.011    2.504143   -6.497954   -0.000076
   2 C     6.0000    0    12.011    0.064821   -5.543566   -0.000213
   3 C     6.0000    0    12.011   -2.373798   -6.542468   -0.000292
   4 C     6.0000    0    12.011   -4.348470   -5.318408   -0.000415
   5 C     6.0000    0    12.011   -4.731054   -2.703173   -0.000513
   6 C     6.0000    0    12.011   -7.038621   -1.384793   -0.000656
   7 C     6.0000    0    12.011   -7.062819    1.204849   -0.000735
   8 C     6.0000    0    12.011   -4.777949    2.560156   -0.000673
   9 C     6.0000    0    12.011   -4.434669    5.191092   -0.000738
  10 C     6.0000    0    12.011   -2.438996    6.375079   -0.000685
  11 C     6.0000    0    12.011    0.035702    5.419521   -0.000548
  12 C     6.0000    0    12.011    2.318651    6.778083   -0.000490
  13 C     6.0000    0    12.011    4.581247    5.518160   -0.000356
  14 C     6.0000    0    12.011    4.635637    2.861028   -0.000273
  15 C     6.0000    0    12.011    6.751239    1.275870   -0.000133
  16 C     6.0000    0    12.011    6.878109   -1.043888   -0.000055
  17 C     6.0000    0    12.011    4.836700   -2.709457   -0.000093
  18 C     6.0000    0    12.011    2.389175   -1.363398   -0.000237
  19 C     6.0000    0    12.011    2.338191    1.365757   -0.000327
  20 C     6.0000    0    12.011   -0.010661    2.684192   -0.000466
  21 C     6.0000    0    12.011   -2.353442    1.292678   -0.000529
  22 C     6.0000    0    12.011   -2.318924   -1.400612   -0.000444
  23 C     6.0000    0    12.011    0.053384   -2.750943   -0.000301
  24 H     1.0000    0     1.008   -8.780865   -2.456850   -0.000702
  25 H     1.0000    0     1.008   -8.824775    2.244154   -0.000846
  26 H     1.0000    0     1.008    2.248505    8.822511   -0.000556
  27 H     1.0000    0     1.008    6.356010    6.535429   -0.000311

--------------------------------
INTERNAL COORDINATES (ANGSTROEM)
--------------------------------
 C      0   0   0     0.000000000000     0.00000000     0.00000000
 C      1   0   0     1.233311153094     0.00000000     0.00000000
 C      2   1   0     1.386115799023   127.93492562     0.00000000
 C      3   2   1     1.394526786654   136.35713427   179.99992934
 C      4   3   2     1.229429119114   125.93116815   179.99999879
 C      5   4   3     1.398653024479   130.11674112     0.00000000
 C      6   5   4     1.406356881464   128.06337445   179.99996511
 C      7   6   5     1.370439356378   120.27594923   179.99993027
 C      8   7   6     1.405808869729   120.13959785     0.00000000
 C      9   8   7     1.404032573171   128.10881581   179.99996912
 C     10   9   8     1.227934447993   128.11353538   180.00002985
 C     11  10   9     1.403788668270   128.20718825     0.00000000
 C     12  11  10     1.405814345385   128.13037980   179.99991903
 C     13  12  11     1.370430894524   120.13232688   180.00008026
 C     14  13  12     1.406387835171   120.28383271     0.00000000
 C     15  14  13     1.398920561552   128.01578581   180.00007993
 C     16  15  14     1.229397768842   129.97358243   179.99995400
 C      1   2   3     1.386126165361   127.90172967     0.00000000
 C     18   1   2     1.478125257009   111.60471134     0.00000000
 C     19  18   1     1.444458443906   119.87957750   180.00004170
 C     20  19  18     1.425381551938   120.37615965   179.99998934
 C     21  20  19     1.441940563688   119.98554120     0.00000000
 C     22  21  20     1.425344884911   119.97423188     0.00000000
 C     19  18   1     1.437688218074   120.47877674     0.00000000
 H      7   6   5     1.082516176984   118.65413466     0.00000000
 H      8   7   6     1.082505890530   121.06996667   179.99994759
 H     13  12  11     1.082501447811   118.79140298     0.00000000
 H     14  13  12     1.082503188350   121.06807548   179.99998225

---------------------------
INTERNAL COORDINATES (A.U.)
---------------------------
 C      0   0   0     0.000000000000     0.00000000     0.00000000
 C      1   0   0     2.330620317259     0.00000000     0.00000000
 C      2   1   0     2.619379250056   127.93492562     0.00000000
 C      3   2   1     2.635273713192   136.35713427   179.99992934
 C      4   3   2     2.323284336193   125.93116815   179.99999879
 C      5   4   3     2.643071172645   130.11674112     0.00000000
 C      6   5   4     2.657629352523   128.06337445   179.99996511
 C      7   6   5     2.589755066702   120.27594923   179.99993027
 C      8   7   6     2.656593760426   120.13959785     0.00000000
 C      9   8   7     2.653237046398   128.10881581   179.99996912
 C     10   9   8     2.320459817115   128.11353538   180.00002985
 C     11  10   9     2.652776132933   128.20718825     0.00000000
 C     12  11  10     2.656604107914   128.13037980   179.99991903
 C     13  12  11     2.589739076115   120.13232688   180.00008026
 C     14  13  12     2.657687846552   120.28383271     0.00000000
 C     15  14  13     2.643576744445   128.01578581   180.00007993
 C     16  15  14     2.323225092764   129.97358243   179.99995400
 C      1   2   3     2.619398839595   127.90172967     0.00000000
 C     18   1   2     2.793251927379   111.60471134     0.00000000
 C     19  18   1     2.729630870812   119.87957750   180.00004170
 C     20  19  18     2.693580769506   120.37615965   179.99998934
 C     21  20  19     2.724872766761   119.98554120     0.00000000
 C     22  21  20     2.693511478868   119.97423188     0.00000000
 C     19  18   1     2.716836998126   120.47877674     0.00000000
 H      7   6   5     2.045659110040   118.65413466     0.00000000
 H      8   7   6     2.045639671459   121.06996667   179.99994759
 H     13  12  11     2.045631275936   118.79140298     0.00000000
 H     14  13  12     2.045634565079   121.06807548   179.99998225

---------------------
BASIS SET INFORMATION
---------------------
There are 2 groups of distinct atoms

 Group   1 Type C   : 12s6p1d contracted to 5s4p1d pattern {63111/3111/1}
 Group   2 Type H   : 5s1p contracted to 3s1p pattern {311/1}

Atom   0C    basis set group =>   1
Atom   1C    basis set group =>   1
Atom   2C    basis set group =>   1
Atom   3C    basis set group =>   1
Atom   4C    basis set group =>   1
Atom   5C    basis set group =>   1
Atom   6C    basis set group =>   1
Atom   7C    basis set group =>   1
Atom   8C    basis set group =>   1
Atom   9C    basis set group =>   1
Atom  10C    basis set group =>   1
Atom  11C    basis set group =>   1
Atom  12C    basis set group =>   1
Atom  13C    basis set group =>   1
Atom  14C    basis set group =>   1
Atom  15C    basis set group =>   1
Atom  16C    basis set group =>   1
Atom  17C    basis set group =>   1
Atom  18C    basis set group =>   1
Atom  19C    basis set group =>   1
Atom  20C    basis set group =>   1
Atom  21C    basis set group =>   1
Atom  22C    basis set group =>   1
Atom  23C    basis set group =>   1
Atom  24H    basis set group =>   2
Atom  25H    basis set group =>   2
Atom  26H    basis set group =>   2
Atom  27H    basis set group =>   2
---------------------------------
AUXILIARY/J BASIS SET INFORMATION
---------------------------------
There are 2 groups of distinct atoms

 Group   1 Type C   : 12s5p4d2f1g contracted to 6s4p3d1f1g pattern {711111/2111/211/2/1}
 Group   2 Type H   : 5s2p1d contracted to 3s1p1d pattern {311/2/1}

Atom   0C    basis set group =>   1
Atom   1C    basis set group =>   1
Atom   2C    basis set group =>   1
Atom   3C    basis set group =>   1
Atom   4C    basis set group =>   1
Atom   5C    basis set group =>   1
Atom   6C    basis set group =>   1
Atom   7C    basis set group =>   1
Atom   8C    basis set group =>   1
Atom   9C    basis set group =>   1
Atom  10C    basis set group =>   1
Atom  11C    basis set group =>   1
Atom  12C    basis set group =>   1
Atom  13C    basis set group =>   1
Atom  14C    basis set group =>   1
Atom  15C    basis set group =>   1
Atom  16C    basis set group =>   1
Atom  17C    basis set group =>   1
Atom  18C    basis set group =>   1
Atom  19C    basis set group =>   1
Atom  20C    basis set group =>   1
Atom  21C    basis set group =>   1
Atom  22C    basis set group =>   1
Atom  23C    basis set group =>   1
Atom  24H    basis set group =>   2
Atom  25H    basis set group =>   2
Atom  26H    basis set group =>   2
Atom  27H    basis set group =>   2


           ************************************************************
           *        Program running with 8 parallel MPI-processes     *
           *              working on a common directory               *
           ************************************************************
------------------------------------------------------------------------------
                           ORCA GTO INTEGRAL CALCULATION
                           -- RI-GTO INTEGRALS CHOSEN --
------------------------------------------------------------------------------
------------------------------------------------------------------------------
                   ___                                                        
                  /   \      - P O W E R E D   B Y -                         
                 /     \                                                     
                 |  |  |   _    _      __       _____    __    __             
                 |  |  |  | |  | |    /  \     |  _  \  |  |  /  |          
                  \  \/   | |  | |   /    \    | | | |  |  | /  /          
                 / \  \   | |__| |  /  /\  \   | |_| |  |  |/  /          
                |  |  |   |  __  | /  /__\  \  |    /   |      \           
                |  |  |   | |  | | |   __   |  |    \   |  |\   \          
                \     /   | |  | | |  |  |  |  | |\  \  |  | \   \       
                 \___/    |_|  |_| |__|  |__|  |_| \__\ |__|  \__/        
                                                                              
                      - O R C A' S   B I G   F R I E N D -                    
                                      &                                       
                       - I N T E G R A L  F E E D E R -                       
                                                                              
 v1 FN, 2020, v2 2021                                                         
------------------------------------------------------------------------------


Reading SHARK input file loss_eight_seven_eleven_twelve_three_four_two_one_spectra.SHARKINP.tmp ... ok
----------------------
SHARK INTEGRAL PACKAGE
----------------------

Number of atoms                             ...     28
Number of basis functions                   ...    552
Number of shells                            ...    256
Maximum angular momentum                    ...      2
Integral batch strategy                     ... SHARK/LIBINT Hybrid
RI-J (if used) integral strategy            ... SPLIT-RIJ (Revised 2003 algorithm where possible)
Printlevel                                  ...      1
Contraction scheme used                     ... SEGMENTED contraction
Coulomb Range Separation                    ... NOT USED
Exchange Range Separation                   ... NOT USED
Finite Nucleus Model                        ... NOT USED
Auxiliary Coulomb fitting basis             ... AVAILABLE
   # of basis functions in Aux-J            ...   1220
   # of shells in Aux-J                     ...    380
   Maximum angular momentum in Aux-J        ...      4
Auxiliary J/K fitting basis                 ... NOT available
Auxiliary Correlation fitting basis         ... NOT available
Auxiliary 'external' fitting basis          ... NOT available
Integral threshold                          ...     1.000000e-10
Primitive cut-off                           ...     1.000000e-11
Primitive pair pre-selection threshold      ...     1.000000e-11

Calculating pre-screening integrals         ... done (  0.0 sec) Dimension = 256
Organizing shell pair data                  ... done (  0.2 sec)
Shell pair information
Total number of shell pairs                 ...     32896
Shell pairs after pre-screening             ...     26945
Total number of primitive shell pairs       ...    115956
Primitive shell pairs kept                  ...     61836
          la=0 lb=0:   6795 shell pairs
          la=1 lb=0:  11087 shell pairs
          la=1 lb=1:   4468 shell pairs
          la=2 lb=0:   2354 shell pairs
          la=2 lb=1:   2004 shell pairs
          la=2 lb=2:    237 shell pairs

Calculating one electron integrals          ... done (  0.0 sec)
Calculating RI/J V-Matrix + Cholesky decomp.... done (  0.1 sec)
Calculating Nuclear repulsion               ... done (  0.0 sec) ENN=   1687.904733266124 Eh

SHARK setup successfully completed in   0.6 seconds

Maximum memory used throughout the entire GTOINT-calculation: 37.5 MB


           ************************************************************
           *        Program running with 8 parallel MPI-processes     *
           *              working on a common directory               *
           ************************************************************
-------------------------------------------------------------------------------
                                 ORCA SCF
-------------------------------------------------------------------------------

------------
SCF SETTINGS
------------
Hamiltonian:
 Density Functional     Method          .... DFT(GTOs)
 Exchange Functional    Exchange        .... B88
   X-Alpha parameter    XAlpha          ....  0.666667
   Becke's b parameter  XBeta           ....  0.004200
 Correlation Functional Correlation     .... LYP
 LDA part of GGA corr.  LDAOpt          .... VWN-5
 Gradients option       PostSCFGGA      .... off
 Hybrid DFT is turned on
   Fraction HF Exchange ScalHFX         ....  0.200000
   Scaling of DF-GGA-X  ScalDFX         ....  0.720000
   Scaling of DF-GGA-C  ScalDFC         ....  0.810000
   Scaling of DF-LDA-C  ScalLDAC        ....  1.000000
   Perturbative correction              ....  0.000000
   Density functional embedding theory  .... OFF
   NL short-range parameter             ....  4.800000
 RI-approximation to the Coulomb term is turned on
   Number of AuxJ basis functions       .... 1220
   RIJ-COSX (HFX calculated with COS-X)).... on


General Settings:
 Integral files         IntName         .... loss_eight_seven_eleven_twelve_three_four_two_one_spectra
 Hartree-Fock type      HFTyp           .... RHF
 Total Charge           Charge          ....    0
 Multiplicity           Mult            ....    1
 Number of Electrons    NEL             ....  148
 Basis Dimension        Dim             ....  552
 Nuclear Repulsion      ENuc            ....   1687.9047332661 Eh

Convergence Acceleration:
 DIIS                   CNVDIIS         .... on
   Start iteration      DIISMaxIt       ....    12
   Startup error        DIISStart       ....  0.200000
   # of expansion vecs  DIISMaxEq       ....     5
   Bias factor          DIISBfac        ....   1.050
   Max. coefficient     DIISMaxC        ....  10.000
 Trust-Rad. Augm. Hess. CNVTRAH         .... auto
   Auto Start mean grad. ratio tolernc. ....  1.125000
   Auto Start start iteration           ....    20
   Auto Start num. interpolation iter.  ....    10
   Max. Number of Micro iterations      ....    16
   Max. Number of Macro iterations      .... Maxiter - #DIIS iter
   Number of Davidson start vectors     ....     2
   Converg. threshold I  (grad. norm)   ....   5.000e-05
   Converg. threshold II (energy diff.) ....   1.000e-06
   Grad. Scal. Fac. for Micro threshold ....   0.100
   Minimum threshold for Micro iter.    ....   0.010
   NR start threshold (gradient norm)   ....   0.001
   Initial trust radius                 ....   0.400
   Minimum AH scaling param. (alpha)    ....   1.000
   Maximum AH scaling param. (alpha)    .... 1000.000
   Orbital update algorithm             .... Taylor
   White noise on init. David. guess    .... on
   Maximum white noise                  ....   0.010
   Quad. conv. algorithm                .... NR
 SOSCF                  CNVSOSCF        .... on
   Start iteration      SOSCFMaxIt      ....   150
   Startup grad/error   SOSCFStart      ....  0.003300
 Level Shifting         CNVShift        .... on
   Level shift para.    LevelShift      ....    0.2500
   Turn off err/grad.   ShiftErr        ....    0.0010
 Zerner damping         CNVZerner       .... off
 Static damping         CNVDamp         .... on
   Fraction old density DampFac         ....    0.7000
   Max. Damping (<1)    DampMax         ....    0.9800
   Min. Damping (>=0)   DampMin         ....    0.0000
   Turn off err/grad.   DampErr         ....    0.1000
 Fernandez-Rico         CNVRico         .... off

SCF Procedure:
 Maximum # iterations   MaxIter         ....   125
 SCF integral mode      SCFMode         .... Direct
   Integral package                     .... SHARK and LIBINT hybrid scheme
 Reset frequency        DirectResetFreq ....    20
 Integral Threshold     Thresh          ....  1.000e-10 Eh
 Primitive CutOff       TCut            ....  1.000e-11 Eh

Convergence Tolerance:
 Convergence Check Mode ConvCheckMode   .... Total+1el-Energy
 Convergence forced     ConvForced      .... 1
 Energy Change          TolE            ....  1.000e-06 Eh
 1-El. energy change                    ....  1.000e-03 Eh
 Orbital Gradient       TolG            ....  5.000e-05
 Orbital Rotation angle TolX            ....  5.000e-05
 DIIS Error             TolErr          ....  1.000e-06


Diagonalization of the overlap matrix:
Smallest eigenvalue                        ... 2.519e-10
Time for diagonalization                   ...    0.027 sec
Threshold for overlap eigenvalues          ... 1.000e-08
Number of eigenvalues below threshold      ... 4
Smallest eigenvalue above threshold        ... 1.177e-08
Time for construction of square roots      ...    0.036 sec
Total time needed                          ...    0.065 sec

Time for model grid setup =    0.258 sec

------------------------------
INITIAL GUESS: MODEL POTENTIAL
------------------------------
Loading Hartree-Fock densities                     ... done
Calculating cut-offs                               ... done
Initializing the effective Hamiltonian             ... done
Setting up the integral package (SHARK)            ... done
Starting the Coulomb interaction                   ... done (   0.3 sec)
Reading the grid                                   ... done
Mapping shells                                     ... done
Starting the XC term evaluation                    ... done (   0.4 sec)
  promolecular density results
     # of electrons  =    147.984561727
     EX              =   -124.562910576
     EC              =     -5.098708228
     EX+EC           =   -129.661618804
Transforming the Hamiltonian                       ... done (   0.0 sec)
Diagonalizing the Hamiltonian                      ... done (   0.0 sec)
Back transforming the eigenvectors                 ... done (   0.0 sec)
Now organizing SCF variables                       ... done
                      ------------------
                      INITIAL GUESS DONE (   1.1 sec)
                      ------------------
-------------------
DFT GRID GENERATION
-------------------

General Integration Accuracy     IntAcc      ... 4.388
Radial Grid Type                 RadialGrid  ... OptM3 with GC (2021)
Angular Grid (max. ang.)         AngularGrid ... 4 (Lebedev-302)
Angular grid pruning method      GridPruning ... 4 (adaptive)
Weight generation scheme         WeightScheme... Becke
Basis function cutoff            BFCut       ... 1.0000e-10
Integration weight cutoff        WCut        ... 1.0000e-14
Angular grids for H and He will be reduced by one unit
Partially contracted basis set               ... off
Rotationally invariant grid construction     ... off

Total number of grid points                  ...   160932
Total number of batches                      ...     2526
Average number of points per batch           ...       63
Average number of grid points per atom       ...     5748
Time for grid setup =    1.097 sec

--------------------
COSX GRID GENERATION
--------------------

GRIDX 1
-------
General Integration Accuracy     IntAcc      ... 3.816
Radial Grid Type                 RadialGrid  ... OptM3 with GC (2021)
Angular Grid (max. ang.)         AngularGrid ... 1 (Lebedev-50)
Angular grid pruning method      GridPruning ... 4 (adaptive)
Weight generation scheme         WeightScheme... Becke
Basis function cutoff            BFCut       ... 1.0000e-10
Integration weight cutoff        WCut        ... 1.0000e-14
Angular grids for H and He will be reduced by one unit
Partially contracted basis set               ... on
Rotationally invariant grid construction     ... off

Total number of grid points                  ...    20350
Total number of batches                      ...      330
Average number of points per batch           ...       61
Average number of grid points per atom       ...      727
UseSFitting                                  ... on

GRIDX 2
-------
General Integration Accuracy     IntAcc      ... 4.020
Radial Grid Type                 RadialGrid  ... OptM3 with GC (2021)
Angular Grid (max. ang.)         AngularGrid ... 2 (Lebedev-110)
Angular grid pruning method      GridPruning ... 4 (adaptive)
Weight generation scheme         WeightScheme... Becke
Basis function cutoff            BFCut       ... 1.0000e-10
Integration weight cutoff        WCut        ... 1.0000e-14
Angular grids for H and He will be reduced by one unit
Partially contracted basis set               ... on
Rotationally invariant grid construction     ... off

Total number of grid points                  ...    51071
Total number of batches                      ...      814
Average number of points per batch           ...       62
Average number of grid points per atom       ...     1824
UseSFitting                                  ... on

GRIDX 3
-------
General Integration Accuracy     IntAcc      ... 4.338
Radial Grid Type                 RadialGrid  ... OptM3 with GC (2021)
Angular Grid (max. ang.)         AngularGrid ... 3 (Lebedev-194)
Angular grid pruning method      GridPruning ... 4 (adaptive)
Weight generation scheme         WeightScheme... Becke
Basis function cutoff            BFCut       ... 1.0000e-10
Integration weight cutoff        WCut        ... 1.0000e-14
Angular grids for H and He will be reduced by one unit
Partially contracted basis set               ... on
Rotationally invariant grid construction     ... off

Total number of grid points                  ...   110663
Total number of batches                      ...     1745
Average number of points per batch           ...       63
Average number of grid points per atom       ...     3952
UseSFitting                                  ... on

Time for X-Grid setup             =    1.729 sec

--------------
SCF ITERATIONS
--------------
ITER       Energy         Delta-E        Max-DP      RMS-DP      [F,P]     Damp
               ***  Starting incremental Fock matrix formation  ***
  0   -915.8664810291   0.000000000000179.50439247  1.01489581  0.1393478 0.7000
  1   -916.0081525144  -0.1416714853227359413.21320431 51172.24252005  0.0756329 0.7000
                               ***Turning on DIIS***
  2   -915.2524191708   0.75573334357416237049.27161795 116046.47554585  0.0273238 0.0000
  3   -913.1453103818   2.107108789012375655.91457902 4028.20515906  0.0835600 0.0000
  4   -913.2112377926  -0.0659274108302010022.43222676 20542.30454825  0.0478249 0.0000
  5   -913.2589771496  -0.0477393569847088266.11547265 72826.59948190  0.0347182 0.0000
  6   -911.1636754053   2.095301744287235924.26702540 2211.24205069  0.0749992 0.0000
  7   -911.1529849719   0.0106904334535003281.82440367 53609.58215666  0.0750609 0.0000
  8   -910.9556885951   0.1972963768011593386.87566963 15578.29142870  0.0740598 0.0000
  9   -910.9237136950   0.0319749001142041745.94801605 18820.75551279  0.0764900 0.0000
 10   -910.9721928701  -0.0484791751342113487.30661802 31965.38731556  0.0797495 0.0000
 11   -910.8364304940   0.1357623760571817207.04495078 21568.84774159  0.0961007 0.0000
 12   -910.9013576263  -0.0649271322581279146.37764321 15000.33298497  0.0374472 0.0000
 13   -910.9901377683  -0.088780141993897327.65672968 14746.64886122  0.0150292 0.0000
 14   -911.0135662959  -0.0234285276091125417.65751083 11356.13068603  0.0079588 0.0000
 15   -910.9774968268   0.0360694691511839089.91534299 21604.90572337  0.0037173 0.0000
 16   -910.9428837574   0.0346130693411038295.91428202 14391.48325115  0.0029316 0.0000
 17   -910.9404576828   0.0024260745881547103.85448979 17610.62316457  0.0016565 0.0000
 18   -910.9482198478  -0.007762164986240723.54734576 3191.69416434  0.0030878 0.0000
 19   -910.9436735056   0.0045463421932253907.48722118 25043.97608759  0.0028437 0.0000
               *** Restarting incremental Fock matrix formation ***
                                   *** Resetting DIIS ***
 20   -911.2255720680  -0.28189856233329274744.39272633 202554.82772529  0.0033723 0.0000

 WARNING: the maximum gradient error descreased on average only by a factor   1.1
          during the last 20 iterations

                      *** Initiating the TRAH-SCF procedure ***


TRAH GRIDX
----------

General Integration Accuracy     IntAcc      ... 3.067
Radial Grid Type                 RadialGrid  ... OptM3 with GC (2021)
Angular Grid (max. ang.)         AngularGrid ... 1 (Lebedev-50)
Angular grid pruning method      GridPruning ... 4 (adaptive)
Weight generation scheme         WeightScheme... Becke
Basis function cutoff            BFCut       ... 1.0000e-10
Integration weight cutoff        WCut        ... 1.0000e-14
Angular grids for H and He will be reduced by one unit
Partially contracted basis set               ... on
Rotationally invariant grid construction     ... off

Total number of grid points                  ...    11092
Total number of batches                      ...      186
Average number of points per batch           ...       59
Average number of grid points per atom       ...      396


TRAH GRID
---------

General Integration Accuracy     IntAcc      ... 3.467
Radial Grid Type                 RadialGrid  ... OptM3 with GC (2021)
Angular Grid (max. ang.)         AngularGrid ... 1 (Lebedev-50)
Angular grid pruning method      GridPruning ... 4 (adaptive)
Weight generation scheme         WeightScheme... Becke
Basis function cutoff            BFCut       ... 1.0000e-10
Integration weight cutoff        WCut        ... 1.0000e-14
Angular grids for H and He will be reduced by one unit
Partially contracted basis set               ... off
Rotationally invariant grid construction     ... off

Total number of grid points                  ...    25177
Total number of batches                      ...      409
Average number of points per batch           ...       61
Average number of grid points per atom       ...      899

 --------------------------------------------------------------------------------------------
   Iter.        energy            ||Error||_2        Shift      TRadius  Mac/Mic        Rej.
 --------------------------------------------------------------------------------------------
WARNING: 137 diagonal Hessian elements are negative!
    0       -914.642177363955     2.390540e+00                     0.400 (TRAH MAcro)   No
WARNING : negative HOMO - LUMO gap : -0.727058
    0     dE    -5.616193e-01     2.987245e+00    -1.0439e+00      0.400 (TRAH MIcro)
    0     dE    -7.586575e-01     8.626279e-01    -4.3777e+00      0.400 (TRAH MIcro)
    0     dE    -7.681980e-01     3.479538e-01    -4.4705e+00      0.400 (TRAH MIcro)
    0     dE    -7.698175e-01     9.190185e-02    -4.4328e+00      0.400 (TRAH MIcro)
    0     dE    -7.701877e-01     5.368603e-02    -4.4298e+00      0.400 (TRAH MIcro)
    0     dE    -7.701896e-01     5.569833e-02    -4.4293e+00      0.400 (TRAH MIcro)
    0     dE    -7.703217e-01     6.284611e-02    -4.4367e+00      0.400 (TRAH MIcro)
    0     dE    -7.703616e-01     7.306853e-02    -4.4359e+00      0.400 (TRAH MIcro)
    0     dE    -7.703748e-01     6.752283e-02    -4.4380e+00      0.400 (TRAH MIcro)
    0     dE    -7.703978e-01     7.397590e-02    -4.4383e+00      0.400 (TRAH MIcro)
    0     dE    -7.704278e-01     8.176194e-02    -4.4410e+00      0.400 (TRAH MIcro)
    0     dE    -7.704356e-01     7.973786e-02    -4.4401e+00      0.400 (TRAH MIcro)
    0     dE    -7.704491e-01     8.123568e-02    -4.4407e+00      0.400 (TRAH MIcro)
    0     dE    -7.704485e-01     8.320883e-02    -4.4413e+00      0.400 (TRAH MIcro)
WARNING: 87 diagonal Hessian elements are negative!
    1       -915.014359525170     1.400410e+00                     0.400 (TRAH MAcro)   No
WARNING : negative HOMO - LUMO gap : -0.488157
    1     dE    -3.132291e-01     1.900857e+00    -5.4425e-01      0.389 (TRAH MIcro)
    1     dE    -4.161046e-01     6.144245e-01    -2.1323e+00      0.400 (TRAH MIcro)
    1     dE    -4.230224e-01     1.856661e-01    -2.2498e+00      0.400 (TRAH MIcro)
    1     dE    -4.239069e-01     4.707120e-02    -2.2372e+00      0.400 (TRAH MIcro)
    1     dE    -4.240836e-01     9.212793e-02    -2.2511e+00      0.400 (TRAH MIcro)
    1     dE    -4.240856e-01     9.328237e-02    -2.2509e+00      0.400 (TRAH MIcro)
    1     dE    -4.243289e-01     1.258971e-01    -2.2669e+00      0.400 (TRAH MIcro)
    1     dE    -4.243304e-01     1.273235e-01    -2.2665e+00      0.400 (TRAH MIcro)
    1     dE    -4.244391e-01     1.104442e-01    -2.2664e+00      0.400 (TRAH MIcro)
    1     dE    -4.245044e-01     1.076969e-01    -2.2671e+00      0.400 (TRAH MIcro)
    1     dE    -4.245035e-01     1.077059e-01    -2.2673e+00      0.400 (TRAH MIcro)
    1     dE    -4.246464e-01     1.123851e-01    -2.2688e+00      0.400 (TRAH MIcro)
    1     dE    -4.246593e-01     1.107875e-01    -2.2700e+00      0.400 (TRAH MIcro)
    1     dE    -4.249538e-01     1.326779e-01    -2.2781e+00      0.400 (TRAH MIcro)
WARNING: 31 diagonal Hessian elements are negative!
    2       -915.246690386105     5.881306e-01                     0.400 (TRAH MAcro)   No
WARNING : negative HOMO - LUMO gap : -0.329769
    2     dE    -4.993845e-02     2.242402e+00    -9.7220e-02      0.165 (TRAH MIcro)
    2     dE    -2.069024e-01     9.015190e-01    -1.6452e+00      0.400 (TRAH MIcro)
    2     dE    -1.113358e-01     3.919581e-01    -4.7877e+00      0.183 (TRAH MIcro)
    2     dE    -1.509360e-01     1.581503e-01    -5.0755e+00      0.216 (TRAH MIcro)
    2     dE    -1.692724e-01     1.329233e-01    -5.1281e+00      0.230 (TRAH MIcro)
    2     dE    -1.785817e-01     1.116774e-01    -5.1450e+00      0.238 (TRAH MIcro)
    2     dE    -1.954890e-01     6.550261e-02    -5.1572e+00      0.251 (TRAH MIcro)
    2     dE    -2.037142e-01     3.762590e-02    -5.1613e+00      0.257 (TRAH MIcro)
    2     dE    -2.050642e-01     1.797276e-02    -5.1626e+00      0.258 (TRAH MIcro)
    2     dE    -2.048566e-01     1.589787e-02    -5.1626e+00      0.258 (TRAH MIcro)
    2     dE    -2.059564e-01     1.835543e-02    -5.1627e+00      0.259 (TRAH MIcro)
    2     dE    -2.065857e-01     2.064597e-02    -5.1627e+00      0.259 (TRAH MIcro)
    2     dE    -2.069258e-01     2.193736e-02    -5.1627e+00      0.259 (TRAH MIcro)
    2     dE    -2.070538e-01     2.271860e-02    -5.1627e+00      0.259 (TRAH MIcro)
WARNING: 23 diagonal Hessian elements are negative!
    3       -915.319666468498     4.907947e-01                     0.400 (TRAH MAcro)   No
WARNING : negative HOMO - LUMO gap : -0.312645
    3     dE    -4.879076e-02     9.188773e-01    -9.4120e-02      0.192 (TRAH MIcro)
    3     dE    -1.084788e-01     2.594053e-01    -4.1911e-01      0.400 (TRAH MIcro)
    3     dE    -1.144277e-01     2.850045e-01    -5.6493e-01      0.386 (TRAH MIcro)
    3     dE    -1.455967e-01     2.120513e-01    -1.0939e+00      0.400 (TRAH MIcro)
    3     dE    -6.464389e-02     2.130081e-01    -1.7651e+00      0.178 (TRAH MIcro)
    3     dE    -6.378417e-02     1.512252e-02    -1.7899e+00      0.172 (TRAH MIcro)
    3     dE    -6.389608e-02     5.792857e-03    -1.7903e+00      0.173 (TRAH MIcro)
WARNING: 16 diagonal Hessian elements are negative!
    4       -915.407822611946     2.877338e-01                     0.480 (TRAH MAcro)   No
WARNING : negative HOMO - LUMO gap : -0.284778
    4     dE    -4.714717e-02     6.663912e-01    -8.6477e-02      0.301 (TRAH MIcro)
    4     dE    -1.185125e-01     3.588708e-01    -8.3003e-01      0.413 (TRAH MIcro)
    4     dE    -1.838179e-01     3.561832e-01    -1.2011e+00      0.480 (TRAH MIcro)
    4     dE    -1.025510e-01     6.808580e-02    -1.4804e+00      0.311 (TRAH MIcro)
    4     dE    -1.076346e-01     3.775323e-02    -1.4886e+00      0.321 (TRAH MIcro)
    4     dE    -1.090757e-01     1.663162e-02    -1.4897e+00      0.324 (TRAH MIcro)
    4     dE    -1.098346e-01     1.345139e-02    -1.4900e+00      0.325 (TRAH MIcro)
    4     dE    -1.099314e-01     1.308383e-02    -1.4900e+00      0.326 (TRAH MIcro)
    4     dE    -1.095996e-01     1.917241e-02    -1.4901e+00      0.325 (TRAH MIcro)
    4     dE    -1.095704e-01     1.931682e-02    -1.4902e+00      0.325 (TRAH MIcro)
    4     dE    -1.096105e-01     1.902405e-02    -1.4902e+00      0.325 (TRAH MIcro)
    4     dE    -1.096476e-01     1.874762e-02    -1.4902e+00      0.325 (TRAH MIcro)
    4     dE    -1.096486e-01     1.868569e-02    -1.4902e+00      0.325 (TRAH MIcro)
    4     dE    -1.096629e-01     1.934398e-02    -1.4902e+00      0.325 (TRAH MIcro)
WARNING: 10 diagonal Hessian elements are negative!
    5       -915.572682450848     4.026404e-01                     0.576 (TRAH MAcro)   No
WARNING : negative HOMO - LUMO gap : -0.194783
    5     dE    -2.811368e-01     1.458292e+00    -9.9581e-01      0.576 (TRAH MIcro)
    5     dE    -3.241737e-01     3.303949e-01    -1.3328e+00      0.567 (TRAH MIcro)
    5     dE    -3.371485e-01     7.632053e-02    -1.3745e+00      0.576 (TRAH MIcro)
    5     dE    -3.375659e-01     2.846967e-02    -1.3802e+00      0.576 (TRAH MIcro)
    5     dE    -3.376354e-01     1.870836e-02    -1.3819e+00      0.576 (TRAH MIcro)
    5     dE    -3.376426e-01     1.865716e-02    -1.3821e+00      0.576 (TRAH MIcro)
    5     dE    -3.376418e-01     1.819780e-02    -1.3822e+00      0.576 (TRAH MIcro)
    5     dE    -3.376461e-01     1.437148e-02    -1.3821e+00      0.576 (TRAH MIcro)
    5     dE    -3.376468e-01     1.566389e-02    -1.3822e+00      0.576 (TRAH MIcro)
    5     dE    -3.376464e-01     1.536491e-02    -1.3821e+00      0.576 (TRAH MIcro)
    5     dE    -3.376472e-01     1.622042e-02    -1.3821e+00      0.576 (TRAH MIcro)
    5     dE    -3.376484e-01     1.667934e-02    -1.3821e+00      0.576 (TRAH MIcro)
    5     dE    -3.376695e-01     2.409300e-02    -1.3822e+00      0.576 (TRAH MIcro)
    5     dE    -3.376745e-01     2.619138e-02    -1.3823e+00      0.576 (TRAH MIcro)
    6       -915.963870731114     5.026376e-01                     0.691 (TRAH MAcro)   No
    6     dE    -1.316639e-01     1.689209e+00    -2.2074e-01      0.439 (TRAH MIcro)
    6     dE    -2.499853e-01     7.641748e-01    -3.6370e-01      0.691 (TRAH MIcro)
    6     dE    -2.603730e-01     1.799930e-01    -4.1227e-01      0.691 (TRAH MIcro)
    6     dE    -2.615975e-01     4.414351e-02    -4.1765e-01      0.691 (TRAH MIcro)
    6     dE    -2.616386e-01     2.383624e-02    -4.1711e-01      0.691 (TRAH MIcro)
    6     dE    -2.616391e-01     2.311983e-02    -4.1701e-01      0.691 (TRAH MIcro)
    6     dE    -2.616550e-01     2.884846e-02    -4.1780e-01      0.691 (TRAH MIcro)
    6     dE    -2.616554e-01     2.896297e-02    -4.1783e-01      0.691 (TRAH MIcro)
    6     dE    -2.616600e-01     3.016962e-02    -4.1781e-01      0.691 (TRAH MIcro)
    6     dE    -2.616615e-01     3.043024e-02    -4.1780e-01      0.691 (TRAH MIcro)
    6     dE    -2.616718e-01     3.068305e-02    -4.1789e-01      0.691 (TRAH MIcro)
    6     dE    -2.616737e-01     2.994904e-02    -4.1794e-01      0.691 (TRAH MIcro)
    6     dE    -2.616773e-01     2.915125e-02    -4.1797e-01      0.691 (TRAH MIcro)
    6     dE    -2.616774e-01     2.915112e-02    -4.1798e-01      0.691 (TRAH MIcro)
    7       -916.206779305108     1.766172e-01                     0.829 (TRAH MAcro)   No
    7     dE    -1.579124e-03     1.894382e-01    -3.1572e-03      0.018 (TRAH MIcro)
    7     dE    -2.398620e-03     2.959846e-02    -4.7915e-03      0.035 (TRAH MIcro)
    7     dE    -2.487589e-03     1.603139e-02    -4.9681e-03      0.038 (TRAH MIcro)
    7     dE    -2.503559e-03     8.040704e-03    -4.9992e-03      0.040 (TRAH MIcro)
    8       -916.209369920098     8.364837e-03                     0.995 (TRAH MAcro)   No
    8     dE    -1.049755e-06     1.040169e-02    -2.0995e-06      0.000 (TRAH MIcro)
    8     dE    -4.796819e-06     3.528804e-03    -9.5936e-06      0.002 (TRAH MIcro)
    8     dE    -6.631105e-06     2.146021e-03    -1.3262e-05      0.004 (TRAH MIcro)
    8     dE    -7.002805e-06     6.981545e-04    -1.4005e-05      0.004 (TRAH MIcro)
    9       -916.209374635282     9.537218e-04                           (NR   MAcro)
    9     dE    -7.553684e-08     5.347927e-04                           (NR   MIcro)
    9     dE    -1.014699e-07     2.297020e-04                           (NR   MIcro)
    9     dE    -1.052858e-07     9.973958e-05                           (NR   MIcro)
    9     dE    -1.059407e-07     4.176797e-05                           (NR   MIcro)
    9     dE    -1.060283e-07     1.582976e-05                           (NR   MIcro)
    9     dE    -1.060430e-07     5.102798e-06                           (NR   MIcro)
   10       -916.209375002087     2.468450e-04                           (NR   MAcro)
   10     dE    -8.844925e-09     3.813011e-05                           (NR   MIcro)
   10     dE    -8.879095e-09     2.080645e-05                           (NR   MIcro)
   10     dE    -8.893503e-09     4.896708e-06                           (NR   MIcro)
   11       -916.209374890412     9.526385e-05                           (NR   MAcro)
   11     dE    -1.308445e-09     1.536419e-05                           (NR   MIcro)
   11     dE    -1.314752e-09     9.318609e-06                           (NR   MIcro)
   11     dE    -1.317358e-09     3.355387e-06                           (NR   MIcro)
   12       -916.209374933762     3.684419e-05                           (NR   MAcro)

               *****************************************************
               *                     SUCCESS                       *
               *           SCF CONVERGED AFTER 145 CYCLES          *
               *****************************************************

Old exchange energy                            =    -25.140897507 Eh
New exchange energy                            =    -25.140924945 Eh
Exchange energy change after final integration =     -0.000027438 Eh
Total energy after final integration           =   -916.209402371 Eh
Final COS-X integration done in                =    22.950 sec

----------------
TOTAL SCF ENERGY
----------------

Total Energy       :         -916.20940237 Eh          -24931.32532 eV

Components:
Nuclear Repulsion  :         1687.90473327 Eh           45930.22284 eV
Electronic Energy  :        -2604.11413564 Eh          -70861.54816 eV
One Electron Energy:        -4588.36457595 Eh         -124855.74766 eV
Two Electron Energy:         1984.25044032 Eh           53994.19949 eV
Max COSX asymmetry :            0.00026329 Eh               0.00716 eV

Virial components:
Potential Energy   :        -1829.17662724 Eh          -49774.42651 eV
Kinetic Energy     :          912.96722487 Eh           24843.10119 eV
Virial Ratio       :            2.00355125


DFT components:
N(Alpha)           :       74.000149083723 electrons
N(Beta)            :       74.000149083723 electrons
N(Total)           :      148.000298167447 electrons
E(X)               :     -100.051616204119 Eh       
E(C)               :       -5.998243486365 Eh       
E(XC)              :     -106.049859690483 Eh       
DFET-embed. en.    :        0.000000000000 Eh       

---------------
SCF CONVERGENCE
---------------

  Last Energy change         ...   -4.3350e-08  Tolerance :   1.0000e-06
  Last Orbital Gradient      ...    3.6844e-05  Tolerance :   5.0000e-05
  Last Orbital Rotation      ...    3.0416e-05

             **** THE GBW FILE WAS UPDATED (loss_eight_seven_eleven_twelve_three_four_two_one_spectra.gbw) ****
             **** DENSITY loss_eight_seven_eleven_twelve_three_four_two_one_spectra.scfp WAS UPDATED ****
             **** ENERGY FILE WAS UPDATED (loss_eight_seven_eleven_twelve_three_four_two_one_spectra.en.tmp) ****
             **** THE GBW FILE WAS UPDATED (loss_eight_seven_eleven_twelve_three_four_two_one_spectra.gbw) ****
             **** DENSITY loss_eight_seven_eleven_twelve_three_four_two_one_spectra.scfp WAS UPDATED ****
----------------
ORBITAL ENERGIES
----------------

  NO   OCC          E(Eh)            E(eV) 
   0   2.0000     -10.253531      -279.0128 
   1   2.0000     -10.253503      -279.0120 
   2   2.0000     -10.233888      -278.4783 
   3   2.0000     -10.233866      -278.4776 
   4   2.0000     -10.233278      -278.4616 
   5   2.0000     -10.233254      -278.4610 
   6   2.0000     -10.231145      -278.4036 
   7   2.0000     -10.230744      -278.3927 
   8   2.0000     -10.226729      -278.2834 
   9   2.0000     -10.226688      -278.2823 
  10   2.0000     -10.224123      -278.2125 
  11   2.0000     -10.223733      -278.2019 
  12   2.0000     -10.204504      -277.6787 
  13   2.0000     -10.204462      -277.6775 
  14   2.0000     -10.204281      -277.6726 
  15   2.0000     -10.203550      -277.6527 
  16   2.0000     -10.203540      -277.6524 
  17   2.0000     -10.202366      -277.6205 
  18   2.0000     -10.202082      -277.6128 
  19   2.0000     -10.201964      -277.6095 
  20   2.0000     -10.198023      -277.5023 
  21   2.0000     -10.197931      -277.4998 
  22   2.0000     -10.197746      -277.4948 
  23   2.0000     -10.195744      -277.4403 
  24   2.0000      -0.939453       -25.5638 
  25   2.0000      -0.906387       -24.6640 
  26   2.0000      -0.905292       -24.6342 
  27   2.0000      -0.860678       -23.4202 
  28   2.0000      -0.858527       -23.3617 
  29   2.0000      -0.834174       -22.6990 
  30   2.0000      -0.814837       -22.1729 
  31   2.0000      -0.791712       -21.5436 
  32   2.0000      -0.769965       -20.9518 
  33   2.0000      -0.762078       -20.7372 
  34   2.0000      -0.744776       -20.2664 
  35   2.0000      -0.743250       -20.2249 
  36   2.0000      -0.670735       -18.2516 
  37   2.0000      -0.663781       -18.0624 
  38   2.0000      -0.649640       -17.6776 
  39   2.0000      -0.641742       -17.4627 
  40   2.0000      -0.639930       -17.4134 
  41   2.0000      -0.589184       -16.0325 
  42   2.0000      -0.562573       -15.3084 
  43   2.0000      -0.549635       -14.9563 
  44   2.0000      -0.548375       -14.9220 
  45   2.0000      -0.538062       -14.6414 
  46   2.0000      -0.528472       -14.3804 
  47   2.0000      -0.505810       -13.7638 
  48   2.0000      -0.496004       -13.4969 
  49   2.0000      -0.481726       -13.1084 
  50   2.0000      -0.479496       -13.0478 
  51   2.0000      -0.461647       -12.5620 
  52   2.0000      -0.458789       -12.4843 
  53   2.0000      -0.446792       -12.1578 
  54   2.0000      -0.445090       -12.1115 
  55   2.0000      -0.421776       -11.4771 
  56   2.0000      -0.420043       -11.4300 
  57   2.0000      -0.416315       -11.3285 
  58   2.0000      -0.412258       -11.2181 
  59   2.0000      -0.389611       -10.6018 
  60   2.0000      -0.382753       -10.4152 
  61   2.0000      -0.370176       -10.0730 
  62   2.0000      -0.366855        -9.9826 
  63   2.0000      -0.349833        -9.5194 
  64   2.0000      -0.310057        -8.4371 
  65   2.0000      -0.300344        -8.1728 
  66   2.0000      -0.299070        -8.1381 
  67   2.0000      -0.295122        -8.0307 
  68   2.0000      -0.294249        -8.0069 
  69   2.0000      -0.288447        -7.8490 
  70   2.0000      -0.282709        -7.6929 
  71   2.0000      -0.281079        -7.6485 
  72   2.0000      -0.237566        -6.4645 
  73   2.0000      -0.235751        -6.4151 
  74   0.0000      -0.109709        -2.9853 
  75   0.0000      -0.098128        -2.6702 
  76   0.0000      -0.097470        -2.6523 
  77   0.0000      -0.089233        -2.4282 
  78   0.0000      -0.088176        -2.3994 
  79   0.0000      -0.081731        -2.2240 
  80   0.0000      -0.042416        -1.1542 
  81   0.0000      -0.036822        -1.0020 
  82   0.0000      -0.032083        -0.8730 
  83   0.0000      -0.000000        -0.0000 
  84   0.0000       0.000000         0.0000 
  85   0.0000       0.000000         0.0000 
  86   0.0000       0.000000         0.0000 
  87   0.0000       0.003089         0.0841 
  88   0.0000       0.008963         0.2439 
  89   0.0000       0.011330         0.3083 
  90   0.0000       0.019246         0.5237 
  91   0.0000       0.027526         0.7490 
  92   0.0000       0.033998         0.9251 
  93   0.0000       0.039080         1.0634 
  94   0.0000       0.042221         1.1489 
  95   0.0000       0.047116         1.2821 
  96   0.0000       0.048664         1.3242 
  97   0.0000       0.049022         1.3340 
  98   0.0000       0.051000         1.3878 
  99   0.0000       0.053464         1.4548 
 100   0.0000       0.054124         1.4728 
 101   0.0000       0.058016         1.5787 
 102   0.0000       0.063809         1.7363 
 103   0.0000       0.073199         1.9918 
 104   0.0000       0.075666         2.0590 
 105   0.0000       0.077754         2.1158 
 106   0.0000       0.084200         2.2912 
 107   0.0000       0.090045         2.4502 
 108   0.0000       0.093820         2.5530 
 109   0.0000       0.094578         2.5736 
 110   0.0000       0.098741         2.6869 
 111   0.0000       0.100465         2.7338 
 112   0.0000       0.101979         2.7750 
 113   0.0000       0.113253         3.0818 
 114   0.0000       0.115411         3.1405 
 115   0.0000       0.118249         3.2177 
 116   0.0000       0.120067         3.2672 
 117   0.0000       0.127082         3.4581 
 118   0.0000       0.133340         3.6284 
 119   0.0000       0.133495         3.6326 
 120   0.0000       0.135160         3.6779 
 121   0.0000       0.135441         3.6855 
 122   0.0000       0.140076         3.8117 
 123   0.0000       0.145344         3.9550 
 124   0.0000       0.145975         3.9722 
 125   0.0000       0.146311         3.9813 
 126   0.0000       0.150185         4.0867 
 127   0.0000       0.159395         4.3374 
 128   0.0000       0.160739         4.3739 
 129   0.0000       0.168208         4.5772 
 130   0.0000       0.171570         4.6687 
 131   0.0000       0.178727         4.8634 
 132   0.0000       0.178800         4.8654 
 133   0.0000       0.181634         4.9425 
 134   0.0000       0.185792         5.0557 
 135   0.0000       0.186150         5.0654 
 136   0.0000       0.189227         5.1491 
 137   0.0000       0.190508         5.1840 
 138   0.0000       0.192685         5.2432 
 139   0.0000       0.198909         5.4126 
 140   0.0000       0.200092         5.4448 
 141   0.0000       0.200760         5.4630 
 142   0.0000       0.201717         5.4890 
 143   0.0000       0.205097         5.5810 
 144   0.0000       0.209315         5.6958 
 145   0.0000       0.213036         5.7970 
 146   0.0000       0.215788         5.8719 
 147   0.0000       0.216201         5.8831 
 148   0.0000       0.219938         5.9848 
 149   0.0000       0.221767         6.0346 
 150   0.0000       0.226818         6.1720 
 151   0.0000       0.228303         6.2124 
 152   0.0000       0.235631         6.4118 
 153   0.0000       0.238015         6.4767 
 154   0.0000       0.238783         6.4976 
 155   0.0000       0.243122         6.6157 
 156   0.0000       0.245167         6.6713 
 157   0.0000       0.245907         6.6915 
 158   0.0000       0.248118         6.7516 
 159   0.0000       0.252503         6.8710 
 160   0.0000       0.258296         7.0286 
 161   0.0000       0.258414         7.0318 
 162   0.0000       0.260194         7.0802 
 163   0.0000       0.262088         7.1318 
 164   0.0000       0.263172         7.1613 
 165   0.0000       0.268138         7.2964 
 166   0.0000       0.272100         7.4042 
 167   0.0000       0.277911         7.5623 
 168   0.0000       0.284698         7.7470 
 169   0.0000       0.288832         7.8595 
 170   0.0000       0.294442         8.0122 
 171   0.0000       0.296550         8.0695 
 172   0.0000       0.299537         8.1508 
 173   0.0000       0.302643         8.2353 
 174   0.0000       0.305115         8.3026 
 175   0.0000       0.308319         8.3898 
 176   0.0000       0.315103         8.5744 
 177   0.0000       0.318881         8.6772 
 178   0.0000       0.327045         8.8994 
 179   0.0000       0.330411         8.9909 
 180   0.0000       0.336530         9.1575 
 181   0.0000       0.343093         9.3360 
 182   0.0000       0.348900         9.4941 
 183   0.0000       0.353387         9.6161 
 184   0.0000       0.358314         9.7502 
 185   0.0000       0.366057         9.9609 
 186   0.0000       0.367339         9.9958 
 187   0.0000       0.374121        10.1803 
 188   0.0000       0.376268        10.2388 
 189   0.0000       0.382056        10.3963 
 190   0.0000       0.392979        10.6935 
 191   0.0000       0.398901        10.8546 
 192   0.0000       0.408285        11.1100 
 193   0.0000       0.409575        11.1451 
 194   0.0000       0.414998        11.2927 
 195   0.0000       0.421776        11.4771 
 196   0.0000       0.428222        11.6525 
 197   0.0000       0.430874        11.7247 
 198   0.0000       0.441857        12.0235 
 199   0.0000       0.446402        12.1472 
 200   0.0000       0.459181        12.4950 
 201   0.0000       0.467840        12.7306 
 202   0.0000       0.479926        13.0594 
 203   0.0000       0.486534        13.2393 
 204   0.0000       0.496275        13.5043 
 205   0.0000       0.500446        13.6178 
 206   0.0000       0.501679        13.6514 
 207   0.0000       0.504431        13.7263 
 208   0.0000       0.516343        14.0504 
 209   0.0000       0.520115        14.1530 
 210   0.0000       0.520315        14.1585 
 211   0.0000       0.521744        14.1974 
 212   0.0000       0.524716        14.2782 
 213   0.0000       0.537893        14.6368 
 214   0.0000       0.543479        14.7888 
 215   0.0000       0.546056        14.8589 
 216   0.0000       0.546909        14.8822 
 217   0.0000       0.548462        14.9244 
 218   0.0000       0.552015        15.0211 
 219   0.0000       0.558655        15.2018 
 220   0.0000       0.560403        15.2493 
 221   0.0000       0.561392        15.2762 
 222   0.0000       0.574478        15.6323 
 223   0.0000       0.589060        16.0291 
 224   0.0000       0.589874        16.0513 
 225   0.0000       0.597487        16.2584 
 226   0.0000       0.598631        16.2896 
 227   0.0000       0.599281        16.3073 
 228   0.0000       0.603222        16.4145 
 229   0.0000       0.603638        16.4258 
 230   0.0000       0.609079        16.5739 
 231   0.0000       0.610264        16.6061 
 232   0.0000       0.616039        16.7633 
 233   0.0000       0.617338        16.7986 
 234   0.0000       0.618540        16.8313 
 235   0.0000       0.622406        16.9365 
 236   0.0000       0.624859        17.0033 
 237   0.0000       0.625681        17.0256 
 238   0.0000       0.632298        17.2057 
 239   0.0000       0.635351        17.2888 
 240   0.0000       0.641868        17.4661 
 241   0.0000       0.650363        17.6973 
 242   0.0000       0.653745        17.7893 
 243   0.0000       0.661788        18.0082 
 244   0.0000       0.663051        18.0425 
 245   0.0000       0.664096        18.0710 
 246   0.0000       0.672051        18.2874 
 247   0.0000       0.672572        18.3016 
 248   0.0000       0.677260        18.4292 
 249   0.0000       0.677618        18.4389 
 250   0.0000       0.678326        18.4582 
 251   0.0000       0.679803        18.4984 
 252   0.0000       0.707393        19.2491 
 253   0.0000       0.710947        19.3458 
 254   0.0000       0.716612        19.5000 
 255   0.0000       0.717164        19.5150 
 256   0.0000       0.722330        19.6556 
 257   0.0000       0.724864        19.7245 
 258   0.0000       0.726991        19.7824 
 259   0.0000       0.729849        19.8602 
 260   0.0000       0.734307        19.9815 
 261   0.0000       0.736311        20.0360 
 262   0.0000       0.744827        20.2678 
 263   0.0000       0.764061        20.7912 
 264   0.0000       0.765194        20.8220 
 265   0.0000       0.771281        20.9876 
 266   0.0000       0.779457        21.2101 
 267   0.0000       0.779737        21.2177 
 268   0.0000       0.781326        21.2610 
 269   0.0000       0.790065        21.4988 
 270   0.0000       0.808666        22.0049 
 271   0.0000       0.810531        22.0557 
 272   0.0000       0.829639        22.5756 
 273   0.0000       0.837311        22.7844 
 274   0.0000       0.863238        23.4899 
 275   0.0000       0.893836        24.3225 
 276   0.0000       0.898941        24.4614 
 277   0.0000       0.903104        24.5747 
 278   0.0000       0.906448        24.6657 
 279   0.0000       0.915411        24.9096 
 280   0.0000       0.921754        25.0822 
 281   0.0000       0.926055        25.1992 
 282   0.0000       0.933182        25.3932 
 283   0.0000       0.934659        25.4334 
 284   0.0000       0.941401        25.6168 
 285   0.0000       0.950977        25.8774 
 286   0.0000       0.955683        26.0055 
 287   0.0000       0.971621        26.4391 
 288   0.0000       0.974076        26.5060 
 289   0.0000       0.975479        26.5441 
 290   0.0000       0.980767        26.6880 
 291   0.0000       0.981370        26.7044 
 292   0.0000       0.985947        26.8290 
 293   0.0000       0.991624        26.9835 
 294   0.0000       0.992485        27.0069 
 295   0.0000       0.996233        27.1089 
 296   0.0000       1.000450        27.2236 
 297   0.0000       1.016698        27.6658 
 298   0.0000       1.018848        27.7243 
 299   0.0000       1.022989        27.8370 
 300   0.0000       1.025582        27.9075 
 301   0.0000       1.028448        27.9855 
 302   0.0000       1.036949        28.2168 
 303   0.0000       1.045398        28.4467 
 304   0.0000       1.047070        28.4922 
 305   0.0000       1.051999        28.6263 
 306   0.0000       1.056580        28.7510 
 307   0.0000       1.066116        29.0105 
 308   0.0000       1.072394        29.1813 
 309   0.0000       1.101256        29.9667 
 310   0.0000       1.107141        30.1268 
 311   0.0000       1.117434        30.4069 
 312   0.0000       1.132349        30.8128 
 313   0.0000       1.146956        31.2103 
 314   0.0000       1.150013        31.2934 
 315   0.0000       1.151475        31.3332 
 316   0.0000       1.161708        31.6117 
 317   0.0000       1.162756        31.6402 
 318   0.0000       1.173453        31.9313 
 319   0.0000       1.190967        32.4079 
 320   0.0000       1.191919        32.4338 
 321   0.0000       1.197839        32.5949 
 322   0.0000       1.215240        33.0684 
 323   0.0000       1.235653        33.6238 
 324   0.0000       1.239280        33.7225 
 325   0.0000       1.245041        33.8793 
 326   0.0000       1.245306        33.8865 
 327   0.0000       1.255180        34.1552 
 328   0.0000       1.263601        34.3843 
 329   0.0000       1.268822        34.5264 
 330   0.0000       1.289064        35.0772 
 331   0.0000       1.293502        35.1980 
 332   0.0000       1.333839        36.2956 
 333   0.0000       1.366146        37.1747 
 334   0.0000       1.372811        37.3561 
 335   0.0000       1.392711        37.8976 
 336   0.0000       1.407938        38.3119 
 337   0.0000       1.424984        38.7758 
 338   0.0000       1.429852        38.9082 
 339   0.0000       1.455104        39.5954 
 340   0.0000       1.455604        39.6090 
 341   0.0000       1.458097        39.6768 
 342   0.0000       1.465993        39.8917 
 343   0.0000       1.471212        40.0337 
 344   0.0000       1.471575        40.0436 
 345   0.0000       1.479566        40.2610 
 346   0.0000       1.491802        40.5940 
 347   0.0000       1.492202        40.6049 
 348   0.0000       1.499701        40.8089 
 349   0.0000       1.499823        40.8123 
 350   0.0000       1.506815        41.0025 
 351   0.0000       1.547908        42.1207 
 352   0.0000       1.556909        42.3657 
 353   0.0000       1.564259        42.5657 
 354   0.0000       1.566472        42.6259 
 355   0.0000       1.567685        42.6589 
 356   0.0000       1.578715        42.9590 
 357   0.0000       1.585149        43.1341 
 358   0.0000       1.619764        44.0760 
 359   0.0000       1.620097        44.0851 
 360   0.0000       1.644451        44.7478 
 361   0.0000       1.651342        44.9353 
 362   0.0000       1.672487        45.5107 
 363   0.0000       1.686226        45.8845 
 364   0.0000       1.687250        45.9124 
 365   0.0000       1.701197        46.2919 
 366   0.0000       1.704175        46.3730 
 367   0.0000       1.716350        46.7043 
 368   0.0000       1.723855        46.9085 
 369   0.0000       1.730056        47.0772 
 370   0.0000       1.748363        47.5754 
 371   0.0000       1.769773        48.1580 
 372   0.0000       1.780710        48.4556 
 373   0.0000       1.789508        48.6950 
 374   0.0000       1.809259        49.2324 
 375   0.0000       1.831975        49.8506 
 376   0.0000       1.844498        50.1913 
 377   0.0000       1.847776        50.2805 
 378   0.0000       1.851964        50.3945 
 379   0.0000       1.858650        50.5764 
 380   0.0000       1.859779        50.6072 
 381   0.0000       1.872831        50.9623 
 382   0.0000       1.878699        51.1220 
 383   0.0000       1.896242        51.5994 
 384   0.0000       1.896848        51.6159 
 385   0.0000       1.908746        51.9396 
 386   0.0000       1.909562        51.9618 
 387   0.0000       1.947326        52.9894 
 388   0.0000       1.950554        53.0773 
 389   0.0000       1.956794        53.2471 
 390   0.0000       1.969850        53.6023 
 391   0.0000       1.979833        53.8740 
 392   0.0000       1.980493        53.8920 
 393   0.0000       1.983764        53.9810 
 394   0.0000       2.005885        54.5829 
 395   0.0000       2.009676        54.6861 
 396   0.0000       2.026560        55.1455 
 397   0.0000       2.031048        55.2676 
 398   0.0000       2.031730        55.2862 
 399   0.0000       2.038403        55.4678 
 400   0.0000       2.041461        55.5510 
 401   0.0000       2.048916        55.7538 
 402   0.0000       2.049628        55.7732 
 403   0.0000       2.051511        55.8245 
 404   0.0000       2.079136        56.5762 
 405   0.0000       2.079411        56.5836 
 406   0.0000       2.095118        57.0111 
 407   0.0000       2.150661        58.5225 
 408   0.0000       2.153739        58.6062 
 409   0.0000       2.159711        58.7687 
 410   0.0000       2.178118        59.2696 
 411   0.0000       2.202590        59.9355 
 412   0.0000       2.232476        60.7488 
 413   0.0000       2.233825        60.7855 
 414   0.0000       2.250407        61.2367 
 415   0.0000       2.286859        62.2286 
 416   0.0000       2.297849        62.5277 
 417   0.0000       2.307846        62.7997 
 418   0.0000       2.326939        63.3192 
 419   0.0000       2.329359        63.3851 
 420   0.0000       2.334723        63.5311 
 421   0.0000       2.342355        63.7387 
 422   0.0000       2.366701        64.4012 
 423   0.0000       2.371934        64.5436 
 424   0.0000       2.376365        64.6642 
 425   0.0000       2.380368        64.7731 
 426   0.0000       2.404847        65.4392 
 427   0.0000       2.463228        67.0278 
 428   0.0000       2.474129        67.3245 
 429   0.0000       2.493549        67.8529 
 430   0.0000       2.511331        68.3368 
 431   0.0000       2.516994        68.4909 
 432   0.0000       2.540453        69.1292 
 433   0.0000       2.540660        69.1349 
 434   0.0000       2.581302        70.2408 
 435   0.0000       2.590464        70.4901 
 436   0.0000       2.600886        70.7737 
 437   0.0000       2.611948        71.0747 
 438   0.0000       2.616835        71.2077 
 439   0.0000       2.629761        71.5594 
 440   0.0000       2.632317        71.6290 
 441   0.0000       2.657508        72.3145 
 442   0.0000       2.691023        73.2265 
 443   0.0000       2.696489        73.3752 
 444   0.0000       2.697935        73.4145 
 445   0.0000       2.702595        73.5413 
 446   0.0000       2.709422        73.7271 
 447   0.0000       2.724216        74.1297 
 448   0.0000       2.731731        74.3342 
 449   0.0000       2.746973        74.7489 
 450   0.0000       2.747766        74.7705 
 451   0.0000       2.762321        75.1666 
 452   0.0000       2.766011        75.2670 
 453   0.0000       2.775173        75.5163 
 454   0.0000       2.810612        76.4806 
 455   0.0000       2.814434        76.5846 
 456   0.0000       2.815121        76.6033 
 457   0.0000       2.821382        76.7737 
 458   0.0000       2.834250        77.1239 
 459   0.0000       2.862619        77.8958 
 460   0.0000       2.865678        77.9791 
 461   0.0000       2.872111        78.1541 
 462   0.0000       2.892206        78.7009 
 463   0.0000       2.895994        78.8040 
 464   0.0000       2.900402        78.9240 
 465   0.0000       2.919559        79.4452 
 466   0.0000       2.922640        79.5291 
 467   0.0000       2.923644        79.5564 
 468   0.0000       2.961105        80.5758 
 469   0.0000       2.969674        80.8089 
 470   0.0000       2.995401        81.5090 
 471   0.0000       3.013231        81.9942 
 472   0.0000       3.033871        82.5558 
 473   0.0000       3.035729        82.6064 
 474   0.0000       3.043308        82.8126 
 475   0.0000       3.046105        82.8887 
 476   0.0000       3.046178        82.8907 
 477   0.0000       3.059470        83.2524 
 478   0.0000       3.081765        83.8591 
 479   0.0000       3.083751        83.9131 
 480   0.0000       3.135992        85.3347 
 481   0.0000       3.146056        85.6085 
 482   0.0000       3.161220        86.0212 
 483   0.0000       3.186255        86.7024 
 484   0.0000       3.190577        86.8200 
 485   0.0000       3.193226        86.8921 
 486   0.0000       3.264613        88.8346 
 487   0.0000       3.284599        89.3785 
 488   0.0000       3.311930        90.1222 
 489   0.0000       3.338441        90.8436 
 490   0.0000       3.354123        91.2703 
 491   0.0000       3.385856        92.1338 
 492   0.0000       3.390478        92.2596 
 493   0.0000       3.391220        92.2798 
 494   0.0000       3.396716        92.4293 
 495   0.0000       3.401650        92.5636 
 496   0.0000       3.426326        93.2351 
 497   0.0000       3.457820        94.0921 
 498   0.0000       3.465637        94.3048 
 499   0.0000       3.466985        94.3415 
 500   0.0000       3.490095        94.9703 
 501   0.0000       3.532115        96.1137 
 502   0.0000       3.557127        96.7943 
 503   0.0000       3.571474        97.1847 
 504   0.0000       3.578737        97.3824 
 505   0.0000       3.623857        98.6102 
 506   0.0000       3.664395        99.7133 
 507   0.0000       3.696897       100.5977 
 508   0.0000       3.716521       101.1317 
 509   0.0000       3.735227       101.6407 
 510   0.0000       3.812335       103.7389 
 511   0.0000       3.845497       104.6413 
[...]
 762   90144.9    110.9     -0.03561   0.14051   0.03414   0.00093
 763   90178.1    110.9      0.00327  -0.00006  -0.00019   0.05999
 764   90300.3    110.7      0.00668   0.00047  -0.00068   0.07967
 765   90353.9    110.7      0.04446  -0.23298   0.34583   0.00042
 766   90406.6    110.6     -0.07634   0.00061  -0.00032   0.03630
 767   90444.0    110.6      0.07897   0.18420   0.18766  -0.00010
 768   90450.4    110.6     -0.06276   0.00141   0.00076   0.02916
 769   90463.6    110.5     -0.02117   0.30796   0.25745  -0.00011
 770   90533.4    110.5     -0.00673  -0.00020   0.00010  -0.01154
 771   90555.1    110.4      0.00834  -0.12978   0.07114  -0.00001
 772   90665.3    110.3     -0.00018   0.02555  -0.01201  -0.00012
 773   90676.3    110.3     -0.03534   0.05412   0.02072   0.00029
 774   90680.1    110.3      0.03315  -0.00098  -0.00051   0.02215
 775   90775.5    110.2      0.02763  -0.00027   0.00004   0.18831
 776   90792.2    110.1     -0.02086  -0.00007  -0.00012  -0.22635
 777   90862.5    110.1     -0.00645   0.02229  -0.04677   0.00032
 778   90888.2    110.0      0.00935  -0.00008   0.00015  -0.09043
 779   90905.9    110.0     -0.00259  -0.05992  -0.01723  -0.00009
 780   90941.3    110.0     -0.01978   0.00010  -0.00012   0.10517
 781   90998.1    109.9     -0.00374   0.00011  -0.00007   0.03931
 782   91022.9    109.9      0.00155   0.00004   0.00001  -0.00382
 783   91047.0    109.8      0.00598   0.00010  -0.00009   0.03537
 784   91068.5    109.8     -0.00089   0.01704   0.00085   0.00009
 785   91096.4    109.8     -0.00306  -0.00704  -0.00570  -0.00013
 786   91136.8    109.7     -0.00146   0.07993  -0.13792   0.00005
 787   91199.6    109.6      0.01193  -0.13124  -0.04127   0.00013
 788   91216.9    109.6      0.00853  -0.00020   0.00002  -0.02869
 789   91277.7    109.6     -0.00645   0.00011  -0.00004  -0.04630
 790   91302.0    109.5     -0.00498   0.00065   0.00669   0.00025
 791   91353.9    109.5     -0.03377   0.00027   0.00122   0.04195
 792   91358.3    109.5     -0.04622  -0.03691  -0.12569  -0.00052
 793   91364.1    109.5      0.05498   0.00033   0.00043  -0.13725
 794   91452.7    109.3     -0.02149  -0.10322   0.11276   0.00009
 795   91465.7    109.3      0.04764  -0.00032   0.00043  -0.02958
 796   91477.6    109.3     -0.01156  -0.04183   0.13183  -0.00020
 797   91528.1    109.3      0.00211  -0.00016   0.00031  -0.02027
 798   91550.2    109.2      0.01497  -0.04856   0.03625   0.00023
 799   91574.5    109.2      0.00399   0.01221   0.01227  -0.00030
 800   91634.6    109.1      0.00520   0.04471  -0.01204  -0.00021
 801   91649.1    109.1      0.00529   0.00008  -0.00015   0.02003
 802   91721.8    109.0     -0.01590  -0.00006   0.00006  -0.12072
 803   91768.3    109.0      0.03547  -0.05390  -0.03471  -0.00062
 804   91809.2    108.9     -0.00803   0.09412   0.01826   0.00022
 805   91827.5    108.9      0.00998  -0.00037  -0.00008  -0.03835
 806   91849.7    108.9     -1.07082  -0.00748  -0.00573  -0.07890
 807   91851.3    108.9      1.08972   0.19330   0.14670  -0.00297
 808   91920.1    108.8     -0.01548  -0.00007  -0.00033  -0.05214
 809   91957.7    108.7     -0.04203  -0.00000   0.00039   0.17728
 810   91984.7    108.7     -0.01810  -0.04197   0.06364  -0.00070
 811   92019.6    108.7      0.01996  -0.07131   0.03729   0.00033
 812   92043.9    108.6      0.11092   0.01256  -0.00383  -0.00152
 813   92047.9    108.6     -0.03193  -0.00041   0.00012  -0.02620
 814   92118.9    108.6     -0.01985   0.00074   0.00042  -0.04567
 815   92120.0    108.6     -0.01062  -0.09155  -0.03922  -0.00022
 816   92147.6    108.5      0.05298   0.06001   0.04906  -0.00058
 817   92194.1    108.5     -0.13476  -0.08365  -0.05342  -0.01342
 818   92196.8    108.5      0.06253  -0.00194  -0.00124   0.53120
 819   92242.2    108.4     -0.02229  -0.00002   0.00001   0.31077
 820   92279.1    108.4     -0.00703  -0.00011  -0.00001   0.04469
 821   92331.2    108.3      0.04305  -0.00045  -0.00042  -0.10598
 822   92352.8    108.3     -0.02000   0.06783   0.05688  -0.00127
 823   92366.8    108.3      0.02822  -0.00004   0.00010  -0.24041
 824   92431.4    108.2      0.00012   0.00006   0.00005   0.10617
 825   92540.8    108.1      0.02610   0.00018  -0.00060  -0.18581
 826   92557.0    108.0     -0.03363  -0.04862   0.10493  -0.00059
 827   92594.7    108.0     -0.01994  -0.08281   0.13271  -0.00002
 828   92697.9    107.9     -0.00786   0.00028   0.00026   0.22014
 829   92738.4    107.8      0.02542   0.06711   0.02937  -0.00151
 830   92761.2    107.8      0.00222   0.00013   0.00003   0.00964
 831   92822.5    107.7     -0.00486   0.01193  -0.02588  -0.00014
 832   92840.7    107.7      0.00036  -0.00004   0.00010   0.05641
 833   92880.1    107.7      0.01542   0.00000  -0.00007   0.41212
 834   92921.0    107.6     -0.00316   0.07040  -0.10532   0.00004
 835   92972.4    107.6      0.00112  -0.00003  -0.00005  -0.01836
 836   92991.0    107.5     -0.01448  -0.00005   0.00002   0.16247
 837   93049.6    107.5     -0.00205   0.00007  -0.00003   0.03794
 838   93089.8    107.4      0.03950   0.01448  -0.02387   0.00040
 839   93133.8    107.4     -0.00647   0.00004   0.00005   0.06018
 840   93174.3    107.3      0.00661   0.06801  -0.01626  -0.00020
 841   93233.7    107.3     -0.00235   0.00001   0.00001   0.00605
 842   93250.9    107.2     -0.01696   0.00003  -0.00003   0.19236
 843   93283.5    107.2     -0.00930   0.00001   0.00005   0.07352
 844   93332.0    107.1      0.14277   0.02251  -0.00550  -0.00108
 845   93340.9    107.1     -0.12105   0.00004  -0.00009   0.15671
 846   93379.3    107.1      0.00958  -0.00005  -0.00012  -0.07706
 847   93413.9    107.1     -0.03492  -0.00019   0.00005   0.42249
 848   93434.3    107.0     -0.00664  -0.06184   0.11111   0.00011
 849   93479.0    107.0      0.00915   0.09813   0.01294  -0.00026
 850   93551.6    106.9      0.01083  -0.09890  -0.19592   0.00073
 851   93582.6    106.9     -0.00235   0.00057  -0.00035  -0.15533
 852   93601.8    106.8     -0.01106  -0.00113  -0.00074  -0.26410
 853   93617.9    106.8      0.01268  -0.27925  -0.21768   0.00045
 854   93668.6    106.8     -0.38267  -0.30056   0.06379   0.00052
 855   93674.1    106.8      0.40042  -0.00493   0.00092  -0.04602
 856   93703.6    106.7     -0.02133   0.01983  -0.24503   0.00038
 857   93744.4    106.7     -0.00563  -0.23489   0.01649   0.00000
 858   93781.9    106.6      0.05451   0.17263   0.16327   0.00200
 859   93798.1    106.6     -0.05104   0.00150   0.00107  -0.18608
 860   93873.0    106.5     -0.02574  -0.11424  -0.08429   0.00066
 861   93909.7    106.5     -0.09650   0.10631   0.00320  -0.00135
 862   93912.3    106.5      0.12724   0.00221  -0.00035   0.09179
 863   93948.8    106.4     -0.05002   0.03060   0.07619  -0.00099
 864   93957.1    106.4      0.04473   0.00017   0.00030   0.19752
 865   94030.4    106.3      0.07515  -0.00005  -0.00032  -0.39686
 866   94069.3    106.3      0.01800   0.00020   0.00020  -0.35506
 867   94074.1    106.3     -0.00590   0.00702  -0.01291  -0.00080
 868   94116.9    106.3     -0.08982   0.00013   0.00015   0.25773
 869   94142.4    106.2      0.06906   0.02650   0.00037  -0.00123
 870   94165.3    106.2     -0.06805  -0.00010   0.00002  -0.20753
 871   94167.8    106.2     -0.00523   0.03713  -0.05287   0.00071
 872   94189.0    106.2     -0.00240   0.02688   0.00218  -0.00001
 873   94236.0    106.1     -0.02302   0.01108   0.05662  -0.00047
 874   94260.7    106.1      0.06312  -0.00009   0.00009   0.48358
 875   94286.6    106.1     -0.02014  -0.01016  -0.00678   0.00039
 876   94292.6    106.1      0.00269   0.01475  -0.04335  -0.00050
 877   94305.1    106.0      0.00119  -0.00012   0.00000   0.00390
 878   94409.9    105.9     -0.00112  -0.00038   0.01352   0.00017
 879   94425.6    105.9     -0.00220  -0.09923  -0.06328   0.00011
 880   94438.1    105.9      0.03475   0.00072   0.00051   0.04526
 881   94465.5    105.9     -0.00905  -0.00005  -0.00005   0.01539
 882   94566.7    105.7     -0.04082   0.00011  -0.00003  -0.18905
 883   94567.5    105.7      0.00009   0.00007   0.00017   0.07885
 884   94624.8    105.7     -0.00005   0.02117  -0.00877  -0.00000
 885   94634.9    105.7     -0.05983   0.00040  -0.00082  -0.06679
 886   94639.5    105.7      0.03294  -0.03624   0.04731  -0.00111
 887   94722.4    105.6     -0.00975   0.08394  -0.00225   0.00013
 888   94755.3    105.5     -0.01847   0.00017   0.00039  -0.00773
 889   94783.3    105.5      0.03754  -0.03014   0.19298   0.00004
 890   94840.0    105.4      0.01959  -0.00018   0.00016   0.06488
 891   94991.9    105.3     -0.00259   0.05236  -0.00005  -0.00009
 892   95061.0    105.2      0.00478   0.00014   0.00003  -0.00409
 893   95085.9    105.2     -0.01365   0.02228  -0.02734   0.00076
 894   95128.3    105.1     -0.44788   0.00209   0.00109  -0.15225
 895   95140.6    105.1      0.44043  -0.15628  -0.09093  -0.00190
 896   95170.9    105.1      0.01458  -0.00034  -0.00041  -0.02209
 897   95181.6    105.1     -0.01109  -0.04606  -0.06176   0.00017
 898   95232.7    105.0     -0.02799  -0.01437   0.00401   0.00045
 899   95254.5    105.0      0.01237  -0.00002   0.00002  -0.14212
 900   95266.0    105.0      0.00399   0.04410   0.05076  -0.00001
 901   95298.8    104.9     -0.00245  -0.00024  -0.00008  -0.08429
 902   95361.5    104.9      0.00678  -0.00010  -0.00007   0.03960
 903   95389.0    104.8      0.02265  -0.10680   0.05357  -0.00026
 904   95407.6    104.8     -0.03796   0.05810   0.12510   0.00012
 905   95422.4    104.8     -0.02967  -0.00028   0.00009  -0.00849
 906   95498.3    104.7      0.02155   0.03857  -0.18916   0.00064
 907   95509.3    104.7     -0.01565  -0.00029   0.00081   0.20115
 908   95555.3    104.7     -0.02007   0.18378  -0.21991   0.00010
 909   95575.9    104.6      0.04326   0.00045  -0.00049   0.02624
 910   95655.7    104.5      0.01625   0.00009  -0.00005   0.15107
 911   95662.6    104.5      0.00666   0.00008  -0.00002   0.14123
 912   95731.8    104.5     -0.07913   0.10580  -0.04369   0.00083
 913   95755.3    104.4     -0.00824   0.00052  -0.00030  -0.18049
 914   95827.5    104.4      0.06101   0.07767   0.02726   0.00000
 915   95839.7    104.3     -0.11379   0.00039   0.00052   0.00130
 916   95854.3    104.3      0.05781   0.01037  -0.16905   0.00016
 917   95885.3    104.3      0.05384  -0.00041   0.00045   0.09612
 918   95969.4    104.2      0.00616  -0.04988  -0.02019  -0.00034
 919   95976.8    104.2     -0.05650   0.00086   0.00049  -0.04389
 920   95984.0    104.2      0.12736  -0.00185  -0.00049   0.02582
 921   96013.3    104.2     -0.10403  -0.24676  -0.05330  -0.00043
 922   96058.1    104.1     -0.00634  -0.13769  -0.03006   0.00011
 923   96070.8    104.1     -0.02372   0.06072   0.08361  -0.00056
 924   96083.0    104.1      0.01068  -0.17288   0.25521   0.00035
 925   96096.0    104.1     -0.11101  -0.00711  -0.00511  -0.00227
 926   96100.2    104.1      0.17665   0.34322   0.21293   0.00028
 927   96108.2    104.0     -0.02785   0.00048   0.00042   0.06488
 928   96154.5    104.0     -0.05019  -0.00002  -0.00013  -0.34040
 929   96174.5    104.0      0.03464   0.00034  -0.00018  -0.60325
 930   96212.2    103.9     -0.01569  -0.14246   0.27907  -0.00082
 931   96233.6    103.9      0.04767  -0.00018   0.00030   0.27789
 932   96258.4    103.9     -0.13266   0.00007  -0.00083  -0.27350
 933   96262.9    103.9      0.18874  -0.03129  -0.08502   0.00266
 934   96341.6    103.8     -0.00390  -0.00015  -0.00012  -0.00955
 935   96375.1    103.8     -0.06193  -0.18353   0.08546  -0.00081
 936   96413.4    103.7      0.00005  -0.00024  -0.00001  -0.12392
 937   96440.5    103.7     -0.00945   0.14351  -0.02010  -0.00005
 938   96506.7    103.6      0.01874   0.00012  -0.00004  -0.20171
 939   96617.8    103.5      0.05450   0.22871   0.19618  -0.00056
 940   96624.7    103.5     -0.06234   0.00184   0.00220   0.04942
 941   96641.3    103.5      0.00006  -0.03846  -0.04059   0.00008
 942   96652.9    103.5     -0.05453   0.13991   0.15584   0.00068
 943   96708.1    103.4      0.07365  -0.32764   0.53264  -0.00062
 944   96721.1    103.4      0.00660  -0.13583   0.19645  -0.00233
 945   96732.6    103.4     -0.00034   0.00156  -0.00194  -0.28694
 946   96776.5    103.3     -0.09286  -0.13091  -0.04075  -0.00142
 947   96812.6    103.3      0.20872  -0.00053   0.00003   0.37285
 948   96837.6    103.3     -0.10558   0.07342  -0.17723  -0.00191
 949   96878.3    103.2     -0.03642   0.00013   0.00058  -0.75295
 950   96936.9    103.2     -0.03255   0.00006   0.00022  -0.14354
 951   96972.3    103.1     -0.17020  -0.00031  -0.00165  -0.03049
 952   96973.8    103.1      0.14826   0.01427   0.09158  -0.00029
 953   97002.2    103.1      0.01514   0.03060  -0.06581  -0.00012
 954   97019.5    103.1      0.01765   0.35563   0.12777   0.00031
 955   97076.1    103.0     -0.01838  -0.08013  -0.11725  -0.00024
 956   97110.9    103.0      0.04252  -0.00014   0.00000   0.41335
 957   97178.1    102.9      0.03439  -0.07377  -0.16660  -0.00028
 958   97213.7    102.9     -0.06667   0.00008   0.00066   0.05082
 959   97220.4    102.9      0.01160  -0.10643  -0.00717  -0.00017
 960   97260.7    102.8      0.01552   0.00043   0.00040  -0.09539
 961   97285.2    102.8     -0.00732   0.15385   0.11218   0.00051
 962   97332.0    102.7     -0.42634  -0.13030   0.09911  -0.00452
 963   97333.2    102.7      0.44377  -0.00375   0.00268   0.16062
 964   97380.6    102.7      0.00289   0.14626   0.05881  -0.00015
 965   97417.2    102.7      0.19745   0.00219   0.00106   0.03422
 966   97420.4    102.6     -0.17947  -0.15336  -0.07624   0.00044
 967   97464.4    102.6     -0.02137  -0.19343  -0.18004   0.00008
 968   97503.2    102.6      0.00354  -0.00028  -0.00008   0.05063
 969   97559.3    102.5     -0.00103  -0.03442  -0.01381   0.00002
 970   97628.0    102.4     -0.00076   0.03631  -0.06271  -0.00009
 971   97670.0    102.4     -0.15225   0.00021  -0.00168   0.00509
 972   97674.7    102.4      0.13588  -0.01321  -0.12388  -0.00003
 973   97697.5    102.4      0.01643   0.09926  -0.05172  -0.00015
 974   97776.9    102.3      0.00421   0.00016   0.00005  -0.01399
 975   97818.6    102.2     -0.00677  -0.00991   0.03623  -0.00018
 976   97831.4    102.2     -0.01817   0.00007   0.00001  -0.20500
 977   97859.9    102.2     -0.00154  -0.00530  -0.04087   0.00003
 978   97874.7    102.2      0.01214  -0.07176  -0.07449  -0.00011
 979   97918.3    102.1     -0.18922  -0.00833  -0.02409   0.02339
 980   97918.5    102.1      0.15098   0.00230   0.00668   0.07900
 981   97979.9    102.1      0.00309  -0.02124   0.01486   0.00002
 982   98042.6    102.0      0.31515   0.00167  -0.00487  -0.03630
 983   98046.3    102.0     -0.30550   0.08390  -0.23490   0.00068
 984   98113.5    101.9     -0.01875  -0.01253   0.01951   0.00025
 985   98131.8    101.9      0.07107   0.16950  -0.18015   0.00051
 986   98156.3    101.9     -0.06994   0.04208  -0.10631   0.00084
 987   98192.3    101.8     -0.01071   0.00067  -0.00065  -0.25277
 988   98252.7    101.8      0.01014   0.11430   0.05118   0.00141
 989   98273.5    101.8      0.01107   0.00014   0.00028  -0.11152
 990   98296.2    101.7      0.15771  -0.00090  -0.00137   0.53577
 991   98299.6    101.7     -0.03580  -0.10018  -0.03037  -0.00075
 992   98301.7    101.7     -0.18010   0.05513   0.10653   0.00682
 993   98349.6    101.7      0.02544   0.09927  -0.09461   0.00007
 994   98360.9    101.7     -0.04662  -0.00024   0.00008  -0.23955
 995   98423.5    101.6      0.39236   0.00030   0.00006  -0.51805
 996   98439.1    101.6     -0.32113  -0.00388  -0.01822  -0.00237
 997   98477.4    101.5     -0.00447   0.00013   0.00003  -0.03255
 998   98535.4    101.5     -0.00219  -0.01076  -0.01681   0.00013
 999   98550.5    101.5     -0.08677   0.02687  -0.00053  -0.00506
 1000   98553.7    101.5      0.05054  -0.00151  -0.00010  -0.08892

Total run time:    17948.001 sec

           *** ORCA-CIS/TD-DFT FINISHED WITHOUT ERROR ***

Maximum memory used throughout the entire CIS-calculation: 4520.1 MB

-----------------------
CIS/TD-DFT TOTAL ENERGY
-----------------------

    E(SCF)  =   -916.209402371 Eh
    DE(CIS) =      0.095438633 Eh (Root  1)
    ----------------------------- ---------
    E(tot)  =   -916.113963738 Eh



-------------------------------------------------------------------------------
                          DFT DISPERSION CORRECTION                            
                                                                               
                                 DFTD4 V2.5                                    
-------------------------------------------------------------------------------
The B3LYP functional is recognized
Active option DFTDOPT                   ...         5   

Starting D4
-------------------------   ----------------
Dispersion correction           -0.093817639
-------------------------   ----------------


-------------------------   --------------------
FINAL SINGLE POINT ENERGY      -916.207781377301
-------------------------   --------------------


                            ***************************************
                            *     ORCA property calculations      *
                            ***************************************

                                    ---------------------
                                    Active property flags
                                    ---------------------
   (+) Dipole Moment


------------------------------------------------------------------------------
                       ORCA ELECTRIC PROPERTIES CALCULATION
------------------------------------------------------------------------------

Dipole Moment Calculation                       ... on
Quadrupole Moment Calculation                   ... off
Polarizability Calculation                      ... off
GBWName                                         ... loss_eight_seven_eleven_twelve_three_four_two_one_spectra.gbw
Electron density                                ... loss_eight_seven_eleven_twelve_three_four_two_one_spectra.scfp
The origin for moment calculation is the CENTER OF MASS  = (-0.030803,  0.050571 -0.000389)

-------------
DIPOLE MOMENT
-------------
                                X             Y             Z
Electronic contribution:      3.90278      -6.57051       0.00038
Nuclear contribution   :     -4.40754       7.41861      -0.00043
                        -----------------------------------------
Total Dipole Moment    :     -0.50476       0.84810      -0.00005
                        -----------------------------------------
Magnitude (a.u.)       :      0.98694
Magnitude (Debye)      :      2.50860



--------------------
Rotational spectrum 
--------------------
 
Rotational constants in cm-1:     0.012267     0.011656     0.005977 
Rotational constants in MHz :   367.756428   349.431266   179.179865 

 Dipole components along the rotational axes: 
x,y,z [a.u.] :    -0.001149     0.986940    -0.000001 
x,y,z [Debye]:    -0.002921     2.508601    -0.000002 

 

Timings for individual modules:

Sum of individual times         ...    18808.488 sec (= 313.475 min)
GTO integral calculation        ...       13.745 sec (=   0.229 min)   0.1 %
SCF iterations                  ...      823.579 sec (=  13.726 min)   4.4 %
CIS module                      ...    17971.164 sec (= 299.519 min)  95.5 %
                             ****ORCA TERMINATED NORMALLY****
TOTAL RUN TIME: 0 days 5 hours 13 minutes 32 seconds 884 msec
