
                                 *****************
                                 * O   R   C   A *
                                 *****************

                                            #,                                       
                                            ###                                      
                                            ####                                     
                                            #####                                    
                                            ######                                   
                                           ########,                                 
                                     ,,################,,,,,                         
                               ,,#################################,,                 
                          ,,##########################################,,             
                       ,#########################################, ''#####,          
                    ,#############################################,,   '####,        
                  ,##################################################,,,,####,       
                ,###########''''           ''''###############################       
              ,#####''   ,,,,##########,,,,          '''####'''          '####       
            ,##' ,,,,###########################,,,                        '##       
           ' ,,###''''                  '''############,,,                           
         ,,##''                                '''############,,,,        ,,,,,,###''
      ,#''                                            '''#######################'''  
     '                                                          ''''####''''         
             ,#######,   #######,   ,#######,      ##                                
            ,#'     '#,  ##    ##  ,#'     '#,    #''#        ######   ,####,        
            ##       ##  ##   ,#'  ##            #'  '#       #        #'  '#        
            ##       ##  #######   ##           ,######,      #####,   #    #        
            '#,     ,#'  ##    ##  '#,     ,#' ,#      #,         ##   #,  ,#        
             '#######'   ##     ##  '#######'  #'      '#     #####' # '####'        



                  #######################################################
                  #                        -***-                        #
                  #          Department of theory and spectroscopy      #
                  #    Directorship and core code : Frank Neese         #
                  #        Max Planck Institute fuer Kohlenforschung    #
                  #                Kaiser Wilhelm Platz 1               #
                  #                 D-45470 Muelheim/Ruhr               #
                  #                      Germany                        #
                  #                                                     #
                  #                  All rights reserved                #
                  #                        -***-                        #
                  #######################################################



                         Program Version 5.0.4 -  RELEASE  -

 With contributions from (in alphabetic order):
   Daniel Aravena         : Magnetic Suceptibility
   Michael Atanasov       : Ab Initio Ligand Field Theory (pilot matlab implementation)
   Alexander A. Auer      : GIAO ZORA, VPT2 properties, NMR spectrum
   Ute Becker             : Parallelization
   Giovanni Bistoni       : ED, misc. LED, open-shell LED, HFLD
   Martin Brehm           : Molecular dynamics
   Dmytro Bykov           : SCF Hessian
   Vijay G. Chilkuri      : MRCI spin determinant printing, contributions to CSF-ICE
   Dipayan Datta          : RHF DLPNO-CCSD density
   Achintya Kumar Dutta   : EOM-CC, STEOM-CC
   Dmitry Ganyushin       : Spin-Orbit,Spin-Spin,Magnetic field MRCI
   Miquel Garcia          : C-PCM and meta-GGA Hessian, CC/C-PCM, Gaussian charge scheme
   Yang Guo               : DLPNO-NEVPT2, F12-NEVPT2, CIM, IAO-localization
   Andreas Hansen         : Spin unrestricted coupled pair/coupled cluster methods
   Benjamin Helmich-Paris : MC-RPA, TRAH-SCF, COSX integrals
   Lee Huntington         : MR-EOM, pCC
   Robert Izsak           : Overlap fitted RIJCOSX, COSX-SCS-MP3, EOM
   Marcus Kettner         : VPT2
   Christian Kollmar      : KDIIS, OOCD, Brueckner-CCSD(T), CCSD density, CASPT2, CASPT2-K
   Simone Kossmann        : Meta GGA functionals, TD-DFT gradient, OOMP2, MP2 Hessian
   Martin Krupicka        : Initial AUTO-CI
   Lucas Lang             : DCDCAS
   Marvin Lechner         : AUTO-CI (C++ implementation), FIC-MRCC
   Dagmar Lenk            : GEPOL surface, SMD
   Dimitrios Liakos       : Extrapolation schemes; Compound Job, initial MDCI parallelization
   Dimitrios Manganas     : Further ROCIS development; embedding schemes
   Dimitrios Pantazis     : SARC Basis sets
   Anastasios Papadopoulos: AUTO-CI, single reference methods and gradients
   Taras Petrenko         : DFT Hessian,TD-DFT gradient, ASA, ECA, R-Raman, ABS, FL, XAS/XES, NRVS
   Peter Pinski           : DLPNO-MP2, DLPNO-MP2 Gradient
   Christoph Reimann      : Effective Core Potentials
   Marius Retegan         : Local ZFS, SOC
   Christoph Riplinger    : Optimizer, TS searches, QM/MM, DLPNO-CCSD(T), (RO)-DLPNO pert. Triples
   Tobias Risthaus        : Range-separated hybrids, TD-DFT gradient, RPA, STAB
   Michael Roemelt        : Original ROCIS implementation
   Masaaki Saitow         : Open-shell DLPNO-CCSD energy and density
   Barbara Sandhoefer     : DKH picture change effects
   Avijit Sen             : IP-ROCIS
   Kantharuban Sivalingam : CASSCF convergence, NEVPT2, FIC-MRCI
   Bernardo de Souza      : ESD, SOC TD-DFT
   Georgi Stoychev        : AutoAux, RI-MP2 NMR, DLPNO-MP2 response
   Willem Van den Heuvel  : Paramagnetic NMR
   Boris Wezisla          : Elementary symmetry handling
   Frank Wennmohs         : Technical directorship


 We gratefully acknowledge several colleagues who have allowed us to
 interface, adapt or use parts of their codes:
   Stefan Grimme, W. Hujo, H. Kruse, P. Pracht,  : VdW corrections, initial TS optimization,
                  C. Bannwarth, S. Ehlert          DFT functionals, gCP, sTDA/sTD-DF
   Ed Valeev, F. Pavosevic, A. Kumar             : LibInt (2-el integral package), F12 methods
   Garnet Chan, S. Sharma, J. Yang, R. Olivares  : DMRG
   Ulf Ekstrom                                   : XCFun DFT Library
   Mihaly Kallay                                 : mrcc  (arbitrary order and MRCC methods)
   Jiri Pittner, Ondrej Demel                    : Mk-CCSD
   Frank Weinhold                                : gennbo (NPA and NBO analysis)
   Christopher J. Cramer and Donald G. Truhlar   : smd solvation model
   Lars Goerigk                                  : TD-DFT with DH, B97 family of functionals
   V. Asgeirsson, H. Jonsson                     : NEB implementation
   FAccTs GmbH                                   : IRC, NEB, NEB-TS, DLPNO-Multilevel, CI-OPT
                                                   MM, QMMM, 2- and 3-layer-ONIOM, Crystal-QMMM,
                                                   LR-CPCM, SF, NACMEs, symmetry and pop. for TD-DFT,
                                                   nearIR, NL-DFT gradient (VV10), updates on ESD,
                                                   ML-optimized integration grids
   S Lehtola, MJT Oliveira, MAL Marques          : LibXC Library
   Liviu Ungur et al                             : ANISO software


 Your calculation uses the libint2 library for the computation of 2-el integrals
 For citations please refer to: http://libint.valeyev.net

 Your ORCA version has been built with support for libXC version: 5.1.0
 For citations please refer to: https://tddft.org/programs/libxc/

 This ORCA versions uses:
   CBLAS   interface :  Fast vector & matrix operations
   LAPACKE interface :  Fast linear algebra routines
   Shared memory     :  Shared parallel matrices


Your calculation utilizes the atom-pairwise dispersion correction
based on tight binding partial charges (D4)
Cite in your paper:
E.Caldeweyher, C.Bannwarth, S.Grimme, J.Chem.Phys., (2017), 147, 034112.
E.Caldeweyher, S.Ehlert, A.Hansen, H.Neugebauer, S.Grimme, J.Chem.Phys., (2018), in progress.
   

================================================================================

----- Orbital basis set information -----
Your calculation utilizes the basis: 6-311+G**
   H, Li - Ne  : R. Krishnan, J. S. Binkley, R. Seeger and J. A. Pople, J. Chem. Phys. 72, 650 (1980).
   Na - Ar     : A. D. McLean and G. S. Chandler J. Chem. Phys. 72, 5639, (1980).
   K  - Ca     : J.-P. Blaudeau, M. P. McGrath, L. A. Curtiss and L. Radom, J. Chem. Phys. 107, 5016 (1997).
   Ga - Kr     : L. A. Curtiss, M. P. McGrath, J.-P. Blandeau, N. E. Davis, R. C. Binning and L. Radom, J. Chem. Phys. 103, 6104 (1995).
   Pol./Diff.
   H, Li - Cl  : T. Clark, J. Chandrasekhar and P. v. R. Schleyer, J. Comp. Chem. 4, 294 (1983).
   H - Ne      : M. J. Frisch, J. A. Pople and J. S. Binkley, J. Chem. Phys. 80, 3265 (1984).

----- AuxJ basis set information -----
Your calculation utilizes the auxiliary basis: def2/J
   F. Weigend, Phys. Chem. Chem. Phys. 8, 1057 (2006).

================================================================================
                                        WARNINGS
                       Please study these warnings very carefully!
================================================================================

INFO   : Checking CIS options ...

WARNING: CIS/ROCIS methods need fully converged wavefunctions
  ===> : Setting SCFConvForced true
         You can overwrite this default with %scf ConvForced false 


INFO   : the flag for use of the SHARK integral package has been found!

================================================================================
                                       INPUT FILE
================================================================================
NAME = pristine_coronene.inp
|  1> !B3LYP 6-311+G** PAL4 D4
|  2> %TDDFT
|  3>   NROOTS 1000
|  4>   END
|  5>   
|  6> * XYZ 0 1
|  7>   C   2.46738420969044     -2.81263795783172     -0.00000966049012
|  8>   C   1.29021523102800     -3.51201377298185     -0.00004058752843
|  9>   C   0.03545823654551     -2.84357180192689     -0.00011700654154
| 10>   C   -1.20218758884439     -3.54318722424976     -0.00015075042869
| 11>   C   -2.39648198994610     -2.87343733279545     -0.00022388485081
| 12>   C   -2.44483130317816     -1.45256921864444     -0.00026846552257
| 13>   C   -3.66953458511693     -0.73051865229528     -0.00034472511273
| 14>   C   -3.68661914160231      0.63861472840141     -0.00038730418280
| 15>   C   -2.48033157917503      1.39101004534826     -0.00035686907249
| 16>   C   -2.46738422792533      2.81263810716101     -0.00040016524558
| 17>   C   -1.29021516017741      3.51201377026014     -0.00036907952599
| 18>   C   -0.03545824433177      2.84357164855152     -0.00029288255853
| 19>   C   1.20218752109912      3.54318714702554     -0.00025868906408
| 20>   C   2.39648192584401      2.87343728473768     -0.00018556866102
| 21>   C   2.44483133698195      1.45256923480284     -0.00014000970252
| 22>   C   3.66953468525759      0.73051872239281     -0.00006428529983
| 23>   C   3.68661917516395     -0.63861465299814     -0.00002177884745
| 24>   C   2.48033158796062     -1.39100989330468     -0.00005249628054
| 25>   C   1.24283538920719     -0.69700184097772     -0.00012812520396
| 26>   C   1.22507788089312      0.72785817295726     -0.00017277212960
| 27>   C   -0.01778931269948      1.42488311059932     -0.00024838531844
| 28>   C   -1.24283548786547      0.69700179739327     -0.00028095765872
| 29>   C   -1.22507784798994     -0.72785823769859     -0.00023664253283
| 30>   C   0.01778926369246     -1.42488327113558     -0.00016058910124
| 31>   H   3.41550123147825     -3.34209676159282      0.00004910526765
| 32>   H   1.30169328790670     -4.59787475323892     -0.00000731993262
| 33>   H   -1.18632309082569     -4.62898226472676     -0.00011753033763
| 34>   H   -3.33114883046848     -3.42627830125467     -0.00024867043727
| 35>   H   -4.60200524090237     -1.28700819551871     -0.00036909708835
| 36>   H   -4.63271390284347      1.17161298430852     -0.00044608968339
| 37>   H   -3.41550124203130      3.34209675863002     -0.00045950330323
| 38>   H   -1.30169305214735      4.59787465380430     -0.00040321338515
| 39>   H   1.18632293779304      4.62898220026966     -0.00029320761784
| 40>   H   3.33114870064961      3.42627836580996     -0.00016042132367
| 41>   H   4.60200524894750      1.28700844288560     -0.00003923404308
| 42>   H   4.63271397793190     -1.17161304216713      0.00003686274508
| 43> **                         ****END OF INPUT****
================================================================================

                       ****************************
                       * Single Point Calculation *
                       ****************************

---------------------------------
CARTESIAN COORDINATES (ANGSTROEM)
---------------------------------
  C      2.467384   -2.812638   -0.000010
  C      1.290215   -3.512014   -0.000041
  C      0.035458   -2.843572   -0.000117
  C     -1.202188   -3.543187   -0.000151
  C     -2.396482   -2.873437   -0.000224
  C     -2.444831   -1.452569   -0.000268
  C     -3.669535   -0.730519   -0.000345
  C     -3.686619    0.638615   -0.000387
  C     -2.480332    1.391010   -0.000357
  C     -2.467384    2.812638   -0.000400
  C     -1.290215    3.512014   -0.000369
  C     -0.035458    2.843572   -0.000293
  C      1.202188    3.543187   -0.000259
  C      2.396482    2.873437   -0.000186
  C      2.444831    1.452569   -0.000140
  C      3.669535    0.730519   -0.000064
  C      3.686619   -0.638615   -0.000022
  C      2.480332   -1.391010   -0.000052
  C      1.242835   -0.697002   -0.000128
  C      1.225078    0.727858   -0.000173
  C     -0.017789    1.424883   -0.000248
  C     -1.242835    0.697002   -0.000281
  C     -1.225078   -0.727858   -0.000237
  C      0.017789   -1.424883   -0.000161
  H      3.415501   -3.342097    0.000049
  H      1.301693   -4.597875   -0.000007
  H     -1.186323   -4.628982   -0.000118
  H     -3.331149   -3.426278   -0.000249
  H     -4.602005   -1.287008   -0.000369
  H     -4.632714    1.171613   -0.000446
  H     -3.415501    3.342097   -0.000460
  H     -1.301693    4.597875   -0.000403
  H      1.186323    4.628982   -0.000293
  H      3.331149    3.426278   -0.000160
  H      4.602005    1.287008   -0.000039
  H      4.632714   -1.171613    0.000037

----------------------------
CARTESIAN COORDINATES (A.U.)
----------------------------
  NO LB      ZA    FRAG     MASS         X           Y           Z
   0 C     6.0000    0    12.011    4.662680   -5.315115   -0.000018
   1 C     6.0000    0    12.011    2.438153   -6.636744   -0.000077
   2 C     6.0000    0    12.011    0.067006   -5.373572   -0.000221
   3 C     6.0000    0    12.011   -2.271805   -6.695653   -0.000285
   4 C     6.0000    0    12.011   -4.528695   -5.430010   -0.000423
   5 C     6.0000    0    12.011   -4.620062   -2.744958   -0.000507
   6 C     6.0000    0    12.011   -6.934415   -1.380480   -0.000651
   7 C     6.0000    0    12.011   -6.966701    1.206807   -0.000732
   8 C     6.0000    0    12.011   -4.687147    2.628628   -0.000674
   9 C     6.0000    0    12.011   -4.662680    5.315116   -0.000756
  10 C     6.0000    0    12.011   -2.438153    6.636744   -0.000697
  11 C     6.0000    0    12.011   -0.067006    5.373572   -0.000553
  12 C     6.0000    0    12.011    2.271805    6.695653   -0.000489
  13 C     6.0000    0    12.011    4.528695    5.430010   -0.000351
  14 C     6.0000    0    12.011    4.620062    2.744958   -0.000265
  15 C     6.0000    0    12.011    6.934416    1.380480   -0.000121
  16 C     6.0000    0    12.011    6.966701   -1.206807   -0.000041
  17 C     6.0000    0    12.011    4.687147   -2.628628   -0.000099
  18 C     6.0000    0    12.011    2.348619   -1.317143   -0.000242
  19 C     6.0000    0    12.011    2.315062    1.375453   -0.000326
  20 C     6.0000    0    12.011   -0.033617    2.692639   -0.000469
  21 C     6.0000    0    12.011   -2.348619    1.317143   -0.000531
  22 C     6.0000    0    12.011   -2.315062   -1.375453   -0.000447
  23 C     6.0000    0    12.011    0.033617   -2.692639   -0.000303
  24 H     1.0000    0     1.008    6.454362   -6.315648    0.000093
  25 H     1.0000    0     1.008    2.459844   -8.688724   -0.000014
  26 H     1.0000    0     1.008   -2.241826   -8.747509   -0.000222
  27 H     1.0000    0     1.008   -6.294959   -6.474728   -0.000470
  28 H     1.0000    0     1.008   -8.696530   -2.432093   -0.000697
  29 H     1.0000    0     1.008   -8.754561    2.214028   -0.000843
  30 H     1.0000    0     1.008   -6.454362    6.315648   -0.000868
  31 H     1.0000    0     1.008   -2.459843    8.688724   -0.000762
  32 H     1.0000    0     1.008    2.241825    8.747509   -0.000554
  33 H     1.0000    0     1.008    6.294959    6.474728   -0.000303
  34 H     1.0000    0     1.008    8.696530    2.432093   -0.000074
  35 H     1.0000    0     1.008    8.754561   -2.214028    0.000070

--------------------------------
INTERNAL COORDINATES (ANGSTROEM)
--------------------------------
 C      0   0   0     0.000000000000     0.00000000     0.00000000
 C      1   0   0     1.369252838631     0.00000000     0.00000000
 C      2   1   0     1.421699613037   121.23934451     0.00000000
 C      3   2   1     1.421699310472   122.47602878   179.99999384
 C      4   3   2     1.369271353295   121.23809940   179.99996920
 C      5   4   3     1.421690492297   121.23223782     0.00000000
 C      6   5   4     1.421708533762   122.47131349   179.99998997
 C      7   6   5     1.369239970941   121.23732514   180.00004597
 C      8   7   6     1.421699123288   121.23802353     0.00000000
 C      9   8   7     1.421687019675   122.47474631   179.99997879
 C     10   9   8     1.369252837559   121.23705080   179.99998485
 C     11  10   9     1.421699614455   121.23934504     0.00000000
 C     12  11  10     1.421699295760   122.47601808   180.00002024
 C     13  12  11     1.369271342206   121.23809668   180.00002033
 C     14  13  12     1.421690431479   121.23224072     0.00000000
 C     15  14  13     1.421708563484   122.47131429   179.99998396
 C     16  15  14     1.369239964802   121.23731913   180.00000490
 C      1   2   3     1.421687022621   121.23705926     0.00000000
 C     18   1   2     1.418817826341   118.76261642     0.00000000
 C     15  14  13     1.418803939195   118.76756145     0.00000000
 C     12  11  10     1.418798562461   118.75895431     0.00000000
 C      9   8   7     1.418817828334   118.76262716     0.00000000
 C      6   5   4     1.418803897077   118.76756270     0.00000000
 C      3   2   1     1.418798555786   118.75894913     0.00000000
 H      1   2   3     1.085933936912   120.10435872   179.99998331
 H      2   1   3     1.085921643279   120.10963583   179.99996250
 H      4   3   2     1.085910932501   118.64148585     0.00000000
 H      5   4   3     1.085925982650   120.11301389   179.99999791
 H      7   6   5     1.085901531545   118.64924856     0.00000000
 H      8   7   6     1.085901672116   120.11038192   179.99996149
 H     10   9   8     1.085933855985   118.65857629     0.00000000
 H     11  10   9     1.085921544855   120.10963710   179.99999344
 H     13  12  11     1.085910946553   118.64148522     0.00000000
 H     14  13  12     1.085925983426   120.11300815   180.00000352
 H     16  15  14     1.085901543322   118.64924127     0.00000000
 H     17  16  15     1.085901773698   120.11038419   180.00005489

---------------------------
INTERNAL COORDINATES (A.U.)
---------------------------
 C      0   0   0     0.000000000000     0.00000000     0.00000000
 C      1   0   0     2.587512873107     0.00000000     0.00000000
 C      2   1   0     2.686622913342   121.23934451     0.00000000
 C      3   2   1     2.686622341576   122.47602878   179.99999384
 C      4   3   2     2.587547860751   121.23809940   179.99996920
 C      5   4   3     2.686605677642   121.23223782     0.00000000
 C      6   5   4     2.686639771069   122.47131349   179.99998997
 C      7   6   5     2.587488556696   121.23732514   180.00004597
 C      8   7   6     2.686621987849   121.23802353     0.00000000
 C      9   8   7     2.686599115336   122.47474631   179.99997879
 C     10   9   8     2.587512871082   121.23705080   179.99998485
 C     11  10   9     2.686622916022   121.23934504     0.00000000
 C     12  11  10     2.686622313774   122.47601808   180.00002024
 C     13  12  11     2.587547839796   121.23809668   180.00002033
 C     14  13  12     2.686605562711   121.23224072     0.00000000
 C     15  14  13     2.686639827235   122.47131429   179.99998396
 C     16  15  14     2.587488545096   121.23731913   180.00000490
 C      1   2   3     2.686599120904   121.23705926     0.00000000
 C     18   1   2     2.681177125710   118.76261642     0.00000000
 C     15  14  13     2.681150882807   118.76756145     0.00000000
 C     12  11  10     2.681140722253   118.75895431     0.00000000
 C      9   8   7     2.681177129476   118.76262716     0.00000000
 C      6   5   4     2.681150803215   118.76756270     0.00000000
 C      3   2   1     2.681140709638   118.75894913     0.00000000
 H      1   2   3     2.052117740295   120.10435872   179.99998331
 H      2   1   3     2.052094508695   120.10963583   179.99996250
 H      4   3   2     2.052074268258   118.64148585     0.00000000
 H      5   4   3     2.052102708917   120.11301389   179.99999791
 H      7   6   5     2.052056503026   118.64924856     0.00000000
 H      8   7   6     2.052056768666   120.11038192   179.99996149
 H     10   9   8     2.052117587364   118.65857629     0.00000000
 H     11  10   9     2.052094322701   120.10963710   179.99999344
 H     13  12  11     2.052074294813   118.64148522     0.00000000
 H     14  13  12     2.052102710384   120.11300815   180.00000352
 H     16  15  14     2.052056525282   118.64924127     0.00000000
 H     17  16  15     2.052056960628   120.11038419   180.00005489

---------------------
BASIS SET INFORMATION
---------------------
There are 2 groups of distinct atoms

 Group   1 Type C   : 12s6p1d contracted to 5s4p1d pattern {63111/3111/1}
 Group   2 Type H   : 5s1p contracted to 3s1p pattern {311/1}

Atom   0C    basis set group =>   1
Atom   1C    basis set group =>   1
Atom   2C    basis set group =>   1
Atom   3C    basis set group =>   1
Atom   4C    basis set group =>   1
Atom   5C    basis set group =>   1
Atom   6C    basis set group =>   1
Atom   7C    basis set group =>   1
Atom   8C    basis set group =>   1
Atom   9C    basis set group =>   1
Atom  10C    basis set group =>   1
Atom  11C    basis set group =>   1
Atom  12C    basis set group =>   1
Atom  13C    basis set group =>   1
Atom  14C    basis set group =>   1
Atom  15C    basis set group =>   1
Atom  16C    basis set group =>   1
Atom  17C    basis set group =>   1
Atom  18C    basis set group =>   1
Atom  19C    basis set group =>   1
Atom  20C    basis set group =>   1
Atom  21C    basis set group =>   1
Atom  22C    basis set group =>   1
Atom  23C    basis set group =>   1
Atom  24H    basis set group =>   2
Atom  25H    basis set group =>   2
Atom  26H    basis set group =>   2
Atom  27H    basis set group =>   2
Atom  28H    basis set group =>   2
Atom  29H    basis set group =>   2
Atom  30H    basis set group =>   2
Atom  31H    basis set group =>   2
Atom  32H    basis set group =>   2
Atom  33H    basis set group =>   2
Atom  34H    basis set group =>   2
Atom  35H    basis set group =>   2
---------------------------------
AUXILIARY/J BASIS SET INFORMATION
---------------------------------
There are 2 groups of distinct atoms

 Group   1 Type C   : 12s5p4d2f1g contracted to 6s4p3d1f1g pattern {711111/2111/211/2/1}
 Group   2 Type H   : 5s2p1d contracted to 3s1p1d pattern {311/2/1}

Atom   0C    basis set group =>   1
Atom   1C    basis set group =>   1
Atom   2C    basis set group =>   1
Atom   3C    basis set group =>   1
Atom   4C    basis set group =>   1
Atom   5C    basis set group =>   1
Atom   6C    basis set group =>   1
Atom   7C    basis set group =>   1
Atom   8C    basis set group =>   1
Atom   9C    basis set group =>   1
Atom  10C    basis set group =>   1
Atom  11C    basis set group =>   1
Atom  12C    basis set group =>   1
Atom  13C    basis set group =>   1
Atom  14C    basis set group =>   1
Atom  15C    basis set group =>   1
Atom  16C    basis set group =>   1
Atom  17C    basis set group =>   1
Atom  18C    basis set group =>   1
Atom  19C    basis set group =>   1
Atom  20C    basis set group =>   1
Atom  21C    basis set group =>   1
Atom  22C    basis set group =>   1
Atom  23C    basis set group =>   1
Atom  24H    basis set group =>   2
Atom  25H    basis set group =>   2
Atom  26H    basis set group =>   2
Atom  27H    basis set group =>   2
Atom  28H    basis set group =>   2
Atom  29H    basis set group =>   2
Atom  30H    basis set group =>   2
Atom  31H    basis set group =>   2
Atom  32H    basis set group =>   2
Atom  33H    basis set group =>   2
Atom  34H    basis set group =>   2
Atom  35H    basis set group =>   2


           ************************************************************
           *        Program running with 4 parallel MPI-processes     *
           *              working on a common directory               *
           ************************************************************
------------------------------------------------------------------------------
                           ORCA GTO INTEGRAL CALCULATION
                           -- RI-GTO INTEGRALS CHOSEN --
------------------------------------------------------------------------------
------------------------------------------------------------------------------
                   ___                                                        
                  /   \      - P O W E R E D   B Y -                         
                 /     \                                                     
                 |  |  |   _    _      __       _____    __    __             
                 |  |  |  | |  | |    /  \     |  _  \  |  |  /  |          
                  \  \/   | |  | |   /    \    | | | |  |  | /  /          
                 / \  \   | |__| |  /  /\  \   | |_| |  |  |/  /          
                |  |  |   |  __  | /  /__\  \  |    /   |      \           
                |  |  |   | |  | | |   __   |  |    \   |  |\   \          
                \     /   | |  | | |  |  |  |  | |\  \  |  | \   \       
                 \___/    |_|  |_| |__|  |__|  |_| \__\ |__|  \__/        
                                                                              
                      - O R C A' S   B I G   F R I E N D -                    
                                      &                                       
                       - I N T E G R A L  F E E D E R -                       
                                                                              
 v1 FN, 2020, v2 2021                                                         
------------------------------------------------------------------------------


Reading SHARK input file pristine_coronene.SHARKINP.tmp ... ok
----------------------
SHARK INTEGRAL PACKAGE
----------------------

Number of atoms                             ...     36
Number of basis functions                   ...    600
Number of shells                            ...    288
Maximum angular momentum                    ...      2
Integral batch strategy                     ... SHARK/LIBINT Hybrid
RI-J (if used) integral strategy            ... SPLIT-RIJ (Revised 2003 algorithm where possible)
Printlevel                                  ...      1
Contraction scheme used                     ... SEGMENTED contraction
Coulomb Range Separation                    ... NOT USED
Exchange Range Separation                   ... NOT USED
Finite Nucleus Model                        ... NOT USED
Auxiliary Coulomb fitting basis             ... AVAILABLE
   # of basis functions in Aux-J            ...   1308
   # of shells in Aux-J                     ...    420
   Maximum angular momentum in Aux-J        ...      4
Auxiliary J/K fitting basis                 ... NOT available
Auxiliary Correlation fitting basis         ... NOT available
Auxiliary 'external' fitting basis          ... NOT available
Integral threshold                          ...     1.000000e-10
Primitive cut-off                           ...     1.000000e-11
Primitive pair pre-selection threshold      ...     1.000000e-11

Calculating pre-screening integrals         ... done (  0.1 sec) Dimension = 288
Organizing shell pair data                  ... done (  0.2 sec)
Shell pair information
Total number of shell pairs                 ...     41616
Shell pairs after pre-screening             ...     32929
Total number of primitive shell pairs       ...    140196
Primitive shell pairs kept                  ...     72578
          la=0 lb=0:   9207 shell pairs
          la=1 lb=0:  13672 shell pairs
          la=1 lb=1:   4983 shell pairs
          la=2 lb=0:   2742 shell pairs
          la=2 lb=1:   2088 shell pairs
          la=2 lb=2:    237 shell pairs

Calculating one electron integrals          ... done (  0.1 sec)
Calculating RI/J V-Matrix + Cholesky decomp.... done (  0.1 sec)
Calculating Nuclear repulsion               ... done (  0.0 sec) ENN=   1833.432103913378 Eh

SHARK setup successfully completed in   0.8 seconds

Maximum memory used throughout the entire GTOINT-calculation: 44.2 MB


           ************************************************************
           *        Program running with 4 parallel MPI-processes     *
           *              working on a common directory               *
           ************************************************************
-------------------------------------------------------------------------------
                                 ORCA SCF
-------------------------------------------------------------------------------

------------
SCF SETTINGS
------------
Hamiltonian:
 Density Functional     Method          .... DFT(GTOs)
 Exchange Functional    Exchange        .... B88
   X-Alpha parameter    XAlpha          ....  0.666667
   Becke's b parameter  XBeta           ....  0.004200
 Correlation Functional Correlation     .... LYP
 LDA part of GGA corr.  LDAOpt          .... VWN-5
 Gradients option       PostSCFGGA      .... off
 Hybrid DFT is turned on
   Fraction HF Exchange ScalHFX         ....  0.200000
   Scaling of DF-GGA-X  ScalDFX         ....  0.720000
   Scaling of DF-GGA-C  ScalDFC         ....  0.810000
   Scaling of DF-LDA-C  ScalLDAC        ....  1.000000
   Perturbative correction              ....  0.000000
   Density functional embedding theory  .... OFF
   NL short-range parameter             ....  4.800000
 RI-approximation to the Coulomb term is turned on
   Number of AuxJ basis functions       .... 1308
   RIJ-COSX (HFX calculated with COS-X)).... on


General Settings:
 Integral files         IntName         .... pristine_coronene
 Hartree-Fock type      HFTyp           .... RHF
 Total Charge           Charge          ....    0
 Multiplicity           Mult            ....    1
 Number of Electrons    NEL             ....  156
 Basis Dimension        Dim             ....  600
 Nuclear Repulsion      ENuc            ....   1833.4321039134 Eh

Convergence Acceleration:
 DIIS                   CNVDIIS         .... on
   Start iteration      DIISMaxIt       ....    12
   Startup error        DIISStart       ....  0.200000
   # of expansion vecs  DIISMaxEq       ....     5
   Bias factor          DIISBfac        ....   1.050
   Max. coefficient     DIISMaxC        ....  10.000
 Trust-Rad. Augm. Hess. CNVTRAH         .... auto
   Auto Start mean grad. ratio tolernc. ....  1.125000
   Auto Start start iteration           ....    20
   Auto Start num. interpolation iter.  ....    10
   Max. Number of Micro iterations      ....    16
   Max. Number of Macro iterations      .... Maxiter - #DIIS iter
   Number of Davidson start vectors     ....     2
   Converg. threshold I  (grad. norm)   ....   5.000e-05
   Converg. threshold II (energy diff.) ....   1.000e-06
   Grad. Scal. Fac. for Micro threshold ....   0.100
   Minimum threshold for Micro iter.    ....   0.010
   NR start threshold (gradient norm)   ....   0.001
   Initial trust radius                 ....   0.400
   Minimum AH scaling param. (alpha)    ....   1.000
   Maximum AH scaling param. (alpha)    .... 1000.000
   Orbital update algorithm             .... Taylor
   White noise on init. David. guess    .... on
   Maximum white noise                  ....   0.010
   Quad. conv. algorithm                .... NR
 SOSCF                  CNVSOSCF        .... on
   Start iteration      SOSCFMaxIt      ....   150
   Startup grad/error   SOSCFStart      ....  0.003300
 Level Shifting         CNVShift        .... on
   Level shift para.    LevelShift      ....    0.2500
   Turn off err/grad.   ShiftErr        ....    0.0010
 Zerner damping         CNVZerner       .... off
 Static damping         CNVDamp         .... on
   Fraction old density DampFac         ....    0.7000
   Max. Damping (<1)    DampMax         ....    0.9800
   Min. Damping (>=0)   DampMin         ....    0.0000
   Turn off err/grad.   DampErr         ....    0.1000
 Fernandez-Rico         CNVRico         .... off

SCF Procedure:
 Maximum # iterations   MaxIter         ....   125
 SCF integral mode      SCFMode         .... Direct
   Integral package                     .... SHARK and LIBINT hybrid scheme
 Reset frequency        DirectResetFreq ....    20
 Integral Threshold     Thresh          ....  1.000e-10 Eh
 Primitive CutOff       TCut            ....  1.000e-11 Eh

Convergence Tolerance:
 Convergence Check Mode ConvCheckMode   .... Total+1el-Energy
 Convergence forced     ConvForced      .... 1
 Energy Change          TolE            ....  1.000e-06 Eh
 1-El. energy change                    ....  1.000e-03 Eh
 Orbital Gradient       TolG            ....  5.000e-05
 Orbital Rotation angle TolX            ....  5.000e-05
 DIIS Error             TolErr          ....  1.000e-06


Diagonalization of the overlap matrix:
Smallest eigenvalue                        ... 1.992e-10
Time for diagonalization                   ...    0.041 sec
Threshold for overlap eigenvalues          ... 1.000e-08
Number of eigenvalues below threshold      ... 6
Smallest eigenvalue above threshold        ... 2.268e-08
Time for construction of square roots      ...    0.049 sec
Total time needed                          ...    0.091 sec

Time for model grid setup =    0.485 sec

------------------------------
INITIAL GUESS: MODEL POTENTIAL
------------------------------
Loading Hartree-Fock densities                     ... done
Calculating cut-offs                               ... done
Initializing the effective Hamiltonian             ... done
Setting up the integral package (SHARK)            ... done
Starting the Coulomb interaction                   ... done (   1.0 sec)
Reading the grid                                   ... done
Mapping shells                                     ... done
Starting the XC term evaluation                    ... done (   0.8 sec)
  promolecular density results
     # of electrons  =    155.982025178
     EX              =   -127.099513154
     EC              =     -5.316746823
     EX+EC           =   -132.416259977
Transforming the Hamiltonian                       ... done (   0.0 sec)
Diagonalizing the Hamiltonian                      ... done (   0.0 sec)
Back transforming the eigenvectors                 ... done (   0.0 sec)
Now organizing SCF variables                       ... done
                      ------------------
                      INITIAL GUESS DONE (   2.3 sec)
                      ------------------
-------------------
DFT GRID GENERATION
-------------------

General Integration Accuracy     IntAcc      ... 4.388
Radial Grid Type                 RadialGrid  ... OptM3 with GC (2021)
Angular Grid (max. ang.)         AngularGrid ... 4 (Lebedev-302)
Angular grid pruning method      GridPruning ... 4 (adaptive)
Weight generation scheme         WeightScheme... Becke
Basis function cutoff            BFCut       ... 1.0000e-10
Integration weight cutoff        WCut        ... 1.0000e-14
Angular grids for H and He will be reduced by one unit
Partially contracted basis set               ... off
Rotationally invariant grid construction     ... off

Total number of grid points                  ...   185728
Total number of batches                      ...     2920
Average number of points per batch           ...       63
Average number of grid points per atom       ...     5159
Time for grid setup =    1.794 sec

--------------------
COSX GRID GENERATION
--------------------

GRIDX 1
-------
General Integration Accuracy     IntAcc      ... 3.816
Radial Grid Type                 RadialGrid  ... OptM3 with GC (2021)
Angular Grid (max. ang.)         AngularGrid ... 1 (Lebedev-50)
Angular grid pruning method      GridPruning ... 4 (adaptive)
Weight generation scheme         WeightScheme... Becke
Basis function cutoff            BFCut       ... 1.0000e-10
Integration weight cutoff        WCut        ... 1.0000e-14
Angular grids for H and He will be reduced by one unit
Partially contracted basis set               ... on
Rotationally invariant grid construction     ... off

Total number of grid points                  ...    23590
Total number of batches                      ...      390
Average number of points per batch           ...       60
Average number of grid points per atom       ...      655
UseSFitting                                  ... on

GRIDX 2
-------
General Integration Accuracy     IntAcc      ... 4.020
Radial Grid Type                 RadialGrid  ... OptM3 with GC (2021)
Angular Grid (max. ang.)         AngularGrid ... 2 (Lebedev-110)
Angular grid pruning method      GridPruning ... 4 (adaptive)
Weight generation scheme         WeightScheme... Becke
Basis function cutoff            BFCut       ... 1.0000e-10
Integration weight cutoff        WCut        ... 1.0000e-14
Angular grids for H and He will be reduced by one unit
Partially contracted basis set               ... on
Rotationally invariant grid construction     ... off

Total number of grid points                  ...    56254
Total number of batches                      ...      902
Average number of points per batch           ...       62
Average number of grid points per atom       ...     1563
UseSFitting                                  ... on

GRIDX 3
-------
General Integration Accuracy     IntAcc      ... 4.338
Radial Grid Type                 RadialGrid  ... OptM3 with GC (2021)
Angular Grid (max. ang.)         AngularGrid ... 3 (Lebedev-194)
Angular grid pruning method      GridPruning ... 4 (adaptive)
Weight generation scheme         WeightScheme... Becke
Basis function cutoff            BFCut       ... 1.0000e-10
Integration weight cutoff        WCut        ... 1.0000e-14
Angular grids for H and He will be reduced by one unit
Partially contracted basis set               ... on
Rotationally invariant grid construction     ... off

Total number of grid points                  ...   121782
Total number of batches                      ...     1922
Average number of points per batch           ...       63
Average number of grid points per atom       ...     3383
UseSFitting                                  ... on

Time for X-Grid setup             =    3.094 sec

--------------
SCF ITERATIONS
--------------
ITER       Energy         Delta-E        Max-DP      RMS-DP      [F,P]     Damp
               ***  Starting incremental Fock matrix formation  ***
  0   -921.1189511583   0.000000000000107.16075163  0.83276897  0.1454857 0.7000
  1   -921.2912136699  -0.1722625115704114702.28299039 41673.12325552  0.0799683 0.7000
                               ***Turning on DIIS***
  2   -920.5860940246   0.70511964531410229569.17161731 96396.93165881  0.0283877 0.0000
  3   -916.7544553843   3.831638640250409265.05163211 3765.59909591  0.1446637 0.7000
  4   -916.8049919324  -0.050536548108317190.69772401 3091.48526651  0.1360611 0.7000
  5   -916.8491514851  -0.044159552647180167.82040545 1547.37628536  0.1274619 0.7000
  6   -916.8724384515  -0.023286966446577340.33745207 4974.36843257  0.1199534 0.7000
  7   -916.8679015233   0.004536928253969547.06926278 8845.92768234  0.1130658 0.7000
  8   -916.7540889631   0.1138125601592578993.49899140 24573.11303197  0.0711294 0.0000
  9   -916.6700251039   0.084063859202886374.15739838 9037.21384977  0.0175046 0.0000
 10   -916.7836509571  -0.1136258531932435948.05599020 17571.97324958  0.0045164 0.0000
 11   -916.8632928008  -0.0796418437163823477.25836415 27843.86657094  0.0028694 0.0000
 12   -916.8944148393  -0.0311220384741859277.86077738 14890.94678727  0.0029882 0.0000
 13   -916.8742887827   0.020126056584748284.23682742 10359.26197995  0.0034061 0.0000
 14   -916.8608144544   0.013474328305387810.70977911 5026.70251781  0.0030633 0.0000
 15   -916.8373867513   0.023427703071385153.59413489 6222.42583414  0.0028755 0.0000
 16   -916.8005529535   0.0368337978461518495.00763241 15234.31418834  0.0030520 0.0000
 17   -916.7779153257   0.022637627798315940.14235332 3273.79301270  0.0032517 0.0000
 18   -916.7493355116   0.0285798140761450819.65745097 11019.94172945  0.0026070 0.0000
 19   -916.7352499879   0.0140855237422276568.22599791 39718.84958919  0.0029248 0.0000
               *** Restarting incremental Fock matrix formation ***
                                   *** Resetting DIIS ***

 WARNING: the maximum gradient error descreased on average only by a factor   0.8
          during the last 20 iterations

                      *** Initiating the TRAH-SCF procedure ***


TRAH GRIDX
----------

General Integration Accuracy     IntAcc      ... 3.067
Radial Grid Type                 RadialGrid  ... OptM3 with GC (2021)
Angular Grid (max. ang.)         AngularGrid ... 1 (Lebedev-50)
Angular grid pruning method      GridPruning ... 4 (adaptive)
Weight generation scheme         WeightScheme... Becke
Basis function cutoff            BFCut       ... 1.0000e-10
Integration weight cutoff        WCut        ... 1.0000e-14
Angular grids for H and He will be reduced by one unit
Partially contracted basis set               ... on
Rotationally invariant grid construction     ... off

Total number of grid points                  ...    12606
Total number of batches                      ...      216
Average number of points per batch           ...       58
Average number of grid points per atom       ...      350


TRAH GRID
---------

General Integration Accuracy     IntAcc      ... 3.467
Radial Grid Type                 RadialGrid  ... OptM3 with GC (2021)
Angular Grid (max. ang.)         AngularGrid ... 1 (Lebedev-50)
Angular grid pruning method      GridPruning ... 4 (adaptive)
Weight generation scheme         WeightScheme... Becke
Basis function cutoff            BFCut       ... 1.0000e-10
Integration weight cutoff        WCut        ... 1.0000e-14
Angular grids for H and He will be reduced by one unit
Partially contracted basis set               ... off
Rotationally invariant grid construction     ... off

Total number of grid points                  ...    28046
Total number of batches                      ...      454
Average number of points per batch           ...       61
Average number of grid points per atom       ...      779

 --------------------------------------------------------------------------------------------
   Iter.        energy            ||Error||_2        Shift      TRadius  Mac/Mic        Rej.
 --------------------------------------------------------------------------------------------
WARNING: 156 diagonal Hessian elements are negative!
    0       -918.628537561626     2.067201e+00                     0.400 (TRAH MAcro)   No
WARNING : negative HOMO - LUMO gap : -0.667595
    0     dE    -3.640191e-01     2.539716e+00    -6.6058e-01      0.320 (TRAH MIcro)
    0     dE    -6.128172e-01     7.356523e-01    -3.4344e+00      0.400 (TRAH MIcro)
    0     dE    -6.222054e-01     2.232445e-01    -3.5341e+00      0.400 (TRAH MIcro)
    0     dE    -6.240326e-01     3.661809e-02    -3.5077e+00      0.400 (TRAH MIcro)
    0     dE    -6.240954e-01     2.271552e-02    -3.5008e+00      0.400 (TRAH MIcro)
    0     dE    -6.240992e-01     2.597903e-02    -3.5013e+00      0.400 (TRAH MIcro)
    0     dE    -6.241199e-01     2.004965e-02    -3.5042e+00      0.400 (TRAH MIcro)
    0     dE    -6.241217e-01     2.032520e-02    -3.5048e+00      0.400 (TRAH MIcro)
    0     dE    -6.241217e-01     1.926852e-02    -3.5049e+00      0.400 (TRAH MIcro)
    0     dE    -6.241293e-01     2.030410e-02    -3.5061e+00      0.400 (TRAH MIcro)
    0     dE    -6.241322e-01     2.210039e-02    -3.5063e+00      0.400 (TRAH MIcro)
    0     dE    -6.241455e-01     2.905772e-02    -3.5054e+00      0.400 (TRAH MIcro)
    0     dE    -6.241549e-01     2.965639e-02    -3.5066e+00      0.400 (TRAH MIcro)
    0     dE    -6.241666e-01     3.914436e-02    -3.5066e+00      0.400 (TRAH MIcro)
WARNING: 107 diagonal Hessian elements are negative!
    1       -919.094251768179     1.154555e+00                     0.400 (TRAH MAcro)   No
WARNING : negative HOMO - LUMO gap : -0.527231
    1     dE    -2.951662e-01     1.499684e+00    -8.0319e-01      0.400 (TRAH MIcro)
    1     dE    -3.807698e-01     3.747546e-01    -2.1508e+00      0.400 (TRAH MIcro)
    1     dE    -3.843427e-01     1.134710e-01    -2.2178e+00      0.400 (TRAH MIcro)
    1     dE    -3.845406e-01     5.600537e-02    -2.2112e+00      0.400 (TRAH MIcro)
    1     dE    -3.845619e-01     5.378198e-02    -2.2093e+00      0.400 (TRAH MIcro)
    1     dE    -3.846527e-01     5.196297e-02    -2.2102e+00      0.400 (TRAH MIcro)
    1     dE    -3.050746e-01     1.015647e-01    -2.8886e+00      0.310 (TRAH MIcro)
    1     dE    -3.043559e-01     4.181399e-02    -2.8903e+00      0.309 (TRAH MIcro)
    1     dE    -3.043547e-01     3.583711e-02    -2.8910e+00      0.309 (TRAH MIcro)
    1     dE    -3.043726e-01     4.389901e-02    -2.8912e+00      0.309 (TRAH MIcro)
    1     dE    -3.044044e-01     4.449404e-02    -2.8913e+00      0.309 (TRAH MIcro)
    1     dE    -3.044046e-01     4.431604e-02    -2.8913e+00      0.309 (TRAH MIcro)
    1     dE    -3.043999e-01     4.578075e-02    -2.8913e+00      0.309 (TRAH MIcro)
    1     dE    -3.044714e-01     5.046480e-02    -2.8916e+00      0.309 (TRAH MIcro)
WARNING: 68 diagonal Hessian elements are negative!
    2       -919.318022437661     7.901978e-01                     0.400 (TRAH MAcro)   No
WARNING : negative HOMO - LUMO gap : -0.436728
    2     dE    -1.976294e-01     1.939440e+00    -4.9487e-01      0.400 (TRAH MIcro)
    2     dE    -2.457347e-01     4.299596e-01    -1.2604e+00      0.400 (TRAH MIcro)
    2     dE    -2.499871e-01     8.286509e-02    -1.3251e+00      0.400 (TRAH MIcro)
    2     dE    -2.506209e-01     1.103308e-01    -1.3335e+00      0.400 (TRAH MIcro)
    2     dE    -1.983341e-01     1.578091e-01    -1.9140e+00      0.304 (TRAH MIcro)
    2     dE    -2.000808e-01     3.441230e-02    -1.9178e+00      0.306 (TRAH MIcro)
    2     dE    -2.010794e-01     4.160552e-02    -1.9181e+00      0.308 (TRAH MIcro)
    2     dE    -2.031009e-01     3.369160e-02    -1.9184e+00      0.311 (TRAH MIcro)
    2     dE    -2.036482e-01     2.977171e-02    -1.9184e+00      0.312 (TRAH MIcro)
    2     dE    -2.031332e-01     3.510441e-02    -1.9185e+00      0.311 (TRAH MIcro)
    2     dE    -2.030878e-01     3.500990e-02    -1.9185e+00      0.311 (TRAH MIcro)
    2     dE    -2.029535e-01     3.904992e-02    -1.9186e+00      0.311 (TRAH MIcro)
    2     dE    -2.028720e-01     3.834023e-02    -1.9186e+00      0.311 (TRAH MIcro)
    2     dE    -2.028585e-01     4.217719e-02    -1.9187e+00      0.311 (TRAH MIcro)
WARNING: 39 diagonal Hessian elements are negative!
    3       -919.503050440126     4.918964e-01                     0.480 (TRAH MAcro)   No
WARNING : negative HOMO - LUMO gap : -0.377234
    3     dE    -7.615984e-02     2.679350e+00    -1.4079e-01      0.286 (TRAH MIcro)
    3     dE    -2.167754e-01     3.908915e-01    -1.0556e+00      0.480 (TRAH MIcro)
    3     dE    -2.863927e-01     1.344888e-01    -1.8431e+00      0.480 (TRAH MIcro)
    3     dE    -2.883259e-01     6.758413e-02    -1.8685e+00      0.480 (TRAH MIcro)
    3     dE    -2.886740e-01     4.131412e-02    -1.8711e+00      0.480 (TRAH MIcro)
    3     dE    -2.887005e-01     3.490754e-02    -1.8711e+00      0.480 (TRAH MIcro)
    3     dE    -2.887102e-01     3.727116e-02    -1.8709e+00      0.480 (TRAH MIcro)
    3     dE    -2.887179e-01     4.232748e-02    -1.8712e+00      0.480 (TRAH MIcro)
    3     dE    -2.887279e-01     4.577582e-02    -1.8713e+00      0.480 (TRAH MIcro)
    3     dE    -2.887394e-01     4.414298e-02    -1.8714e+00      0.480 (TRAH MIcro)
    3     dE    -2.887718e-01     4.160340e-02    -1.8716e+00      0.480 (TRAH MIcro)
    3     dE    -2.887735e-01     4.119866e-02    -1.8716e+00      0.480 (TRAH MIcro)
    3     dE    -2.887948e-01     4.158336e-02    -1.8714e+00      0.480 (TRAH MIcro)
    3     dE    -2.887965e-01     4.331314e-02    -1.8715e+00      0.480 (TRAH MIcro)
WARNING: 13 diagonal Hessian elements are negative!
    4       -919.842734088504     7.036770e-01                     0.576 (TRAH MAcro)   No
WARNING : negative HOMO - LUMO gap : -0.242000
    4     dE    -3.782766e-01     2.701621e+00    -1.0587e+00      0.576 (TRAH MIcro)
    4     dE    -4.599480e-01     6.093681e-01    -1.6005e+00      0.576 (TRAH MIcro)
    4     dE    -4.654988e-01     5.647455e-02    -1.6399e+00      0.576 (TRAH MIcro)
    4     dE    -4.658445e-01     4.211401e-02    -1.6415e+00      0.576 (TRAH MIcro)
    4     dE    -4.658558e-01     4.231387e-02    -1.6412e+00      0.576 (TRAH MIcro)
    4     dE    -4.658567e-01     4.234805e-02    -1.6412e+00      0.576 (TRAH MIcro)
    4     dE    -4.658715e-01     4.365627e-02    -1.6412e+00      0.576 (TRAH MIcro)
    4     dE    -4.658712e-01     4.351067e-02    -1.6412e+00      0.576 (TRAH MIcro)
    4     dE    -4.659215e-01     4.803841e-02    -1.6418e+00      0.576 (TRAH MIcro)
    4     dE    -4.659204e-01     4.831364e-02    -1.6418e+00      0.576 (TRAH MIcro)
    4     dE    -4.659283e-01     4.669129e-02    -1.6419e+00      0.576 (TRAH MIcro)
    4     dE    -4.659427e-01     4.899313e-02    -1.6420e+00      0.576 (TRAH MIcro)
    4     dE    -4.659601e-01     5.008657e-02    -1.6420e+00      0.576 (TRAH MIcro)
    4     dE    -4.659798e-01     5.369084e-02    -1.6422e+00      0.576 (TRAH MIcro)
WARNING: 7 diagonal Hessian elements are negative!
    5       -920.356108350320     5.670672e-01                     0.691 (TRAH MAcro)   No
WARNING : negative HOMO - LUMO gap : -0.183069
    5     dE    -9.215999e-02     2.474889e+00    -1.6924e-01      0.298 (TRAH MIcro)
    5     dE    -2.627162e-01     9.029624e-01    -3.6924e-01      0.691 (TRAH MIcro)
    5     dE    -1.612957e-01     3.567807e-01    -2.5483e+00      0.292 (TRAH MIcro)
    5     dE    -5.785997e-01     4.813901e-01    -2.8800e+00      0.600 (TRAH MIcro)
    5     dE    -6.754351e-01     1.680681e-01    -2.9032e+00      0.651 (TRAH MIcro)
    5     dE    -7.072238e-01     4.233524e-02    -2.9048e+00      0.667 (TRAH MIcro)
    5     dE    -7.092147e-01     3.259145e-02    -2.9049e+00      0.668 (TRAH MIcro)
    5     dE    -7.115074e-01     3.106063e-02    -2.9050e+00      0.670 (TRAH MIcro)
    5     dE    -7.115202e-01     3.161335e-02    -2.9050e+00      0.670 (TRAH MIcro)
    5     dE    -7.092119e-01     4.080951e-02    -2.9051e+00      0.668 (TRAH MIcro)
    5     dE    -7.084440e-01     4.392561e-02    -2.9051e+00      0.668 (TRAH MIcro)
    5     dE    -7.080831e-01     4.520552e-02    -2.9051e+00      0.668 (TRAH MIcro)
    5     dE    -7.088112e-01     4.190706e-02    -2.9052e+00      0.668 (TRAH MIcro)
    5     dE    -7.089309e-01     4.143252e-02    -2.9052e+00      0.668 (TRAH MIcro)
WARNING: 17 diagonal Hessian elements are negative!
    6       -920.640068610710     7.510596e-01                     0.691 (TRAH MAcro)   No
WARNING : negative HOMO - LUMO gap : -0.268452
    6     dE    -9.867862e-02     1.688039e+00    -1.8596e-01      0.248 (TRAH MIcro)
    6     dE    -2.517785e-01     2.378396e-01    -3.5830e-01      0.637 (TRAH MIcro)
    6     dE    -2.603967e-01     9.603866e-02    -3.6858e-01      0.643 (TRAH MIcro)
    6     dE    -2.610335e-01     9.196911e-02    -3.7019e-01      0.641 (TRAH MIcro)
    6     dE    -2.764675e-01     5.540028e-01    -6.5529e-01      0.626 (TRAH MIcro)
    6     dE    -1.434619e-01     4.463955e-01    -1.5314e+00      0.269 (TRAH MIcro)
    6     dE    -1.455904e-01     3.687379e-02    -1.5809e+00      0.263 (TRAH MIcro)
    6     dE    -1.454422e-01     3.352781e-02    -1.5818e+00      0.263 (TRAH MIcro)
    6     dE    -1.455140e-01     2.749532e-02    -1.5821e+00      0.263 (TRAH MIcro)
    6     dE    -1.456053e-01     2.298289e-02    -1.5822e+00      0.263 (TRAH MIcro)
    6     dE    -1.456060e-01     2.288929e-02    -1.5822e+00      0.263 (TRAH MIcro)
    6     dE    -1.456214e-01     2.356667e-02    -1.5822e+00      0.263 (TRAH MIcro)
    6     dE    -1.456200e-01     2.398889e-02    -1.5822e+00      0.263 (TRAH MIcro)
    6     dE    -1.456212e-01     2.397813e-02    -1.5823e+00      0.263 (TRAH MIcro)
WARNING: 7 diagonal Hessian elements are negative!
    7       -920.708743441858     3.690379e-01                     0.691 (TRAH MAcro)   No
WARNING : negative HOMO - LUMO gap : -0.214080
    7     dE    -4.280927e-02     1.063923e+00    -8.1625e-02      0.221 (TRAH MIcro)
    7     dE    -8.350209e-02     2.447184e-01    -1.3772e-01      0.461 (TRAH MIcro)
    7     dE    -9.589550e-02     4.112512e-01    -1.4779e-01      0.546 (TRAH MIcro)
    7     dE    -7.145054e-02     4.216244e-01    -6.9583e-01      0.301 (TRAH MIcro)
    7     dE    -4.552029e-02     1.765311e-01    -1.3294e+00      0.164 (TRAH MIcro)
    7     dE    -4.571263e-02     2.728276e-02    -1.3431e+00      0.163 (TRAH MIcro)
    7     dE    -4.558379e-02     1.227540e-02    -1.3436e+00      0.162 (TRAH MIcro)
    7     dE    -4.560403e-02     1.518618e-02    -1.3436e+00      0.162 (TRAH MIcro)
    7     dE    -4.560621e-02     1.530256e-02    -1.3437e+00      0.162 (TRAH MIcro)
    7     dE    -4.561117e-02     1.764809e-02    -1.3437e+00      0.162 (TRAH MIcro)
    7     dE    -4.561797e-02     1.787118e-02    -1.3438e+00      0.162 (TRAH MIcro)
    7     dE    -4.562842e-02     1.658958e-02    -1.3438e+00      0.162 (TRAH MIcro)
    7     dE    -4.562911e-02     1.642633e-02    -1.3438e+00      0.162 (TRAH MIcro)
    7     dE    -4.563229e-02     1.694276e-02    -1.3438e+00      0.162 (TRAH MIcro)
WARNING: 6 diagonal Hessian elements are negative!
    8       -920.728340567928     2.066288e-01                     0.691 (TRAH MAcro)   No
WARNING : negative HOMO - LUMO gap : -0.195486
    8     dE    -1.998962e-02     7.695619e-01    -3.8628e-02      0.187 (TRAH MIcro)
    8     dE    -9.243959e-02     9.828349e-01    -1.6475e-01      0.691 (TRAH MIcro)
    8     dE    -2.224498e-01     5.588241e-01    -7.8714e-01      0.691 (TRAH MIcro)
    8     dE    -8.917675e-02     2.060644e-01    -9.9368e-01      0.371 (TRAH MIcro)
    8     dE    -9.040204e-02     6.586794e-02    -1.0024e+00      0.373 (TRAH MIcro)
    8     dE    -8.997788e-02     1.302660e-02    -1.0036e+00      0.371 (TRAH MIcro)
    8     dE    -8.991178e-02     9.625447e-03    -1.0036e+00      0.371 (TRAH MIcro)
WARNING: 3 diagonal Hessian elements are negative!
    9       -920.864926522374     3.108778e-01                     0.829 (TRAH MAcro)   No
WARNING : negative HOMO - LUMO gap : -0.105177
    9     dE    -1.822914e-01     2.447662e+00    -2.3323e-01      0.750 (TRAH MIcro)
    9     dE    -3.642545e-01     7.431189e-01    -6.9944e-01      0.829 (TRAH MIcro)
    9     dE    -3.777561e-01     1.352994e-01    -7.4328e-01      0.829 (TRAH MIcro)
    9     dE    -3.787126e-01     4.660583e-02    -7.4707e-01      0.829 (TRAH MIcro)
    9     dE    -3.788126e-01     6.868635e-02    -7.4782e-01      0.829 (TRAH MIcro)
    9     dE    -1.597703e-01     1.606815e-01    -1.0872e+00      0.423 (TRAH MIcro)
    9     dE    -7.903297e-02     3.647265e-02    -1.6650e+00      0.231 (TRAH MIcro)
    9     dE    -7.892664e-02     1.670140e-02    -1.6659e+00      0.231 (TRAH MIcro)
    9     dE    -7.888119e-02     1.305845e-02    -1.6660e+00      0.230 (TRAH MIcro)
    9     dE    -7.891515e-02     1.554277e-02    -1.6660e+00      0.230 (TRAH MIcro)
    9     dE    -7.893498e-02     1.636161e-02    -1.6660e+00      0.231 (TRAH MIcro)
    9     dE    -7.892914e-02     1.668229e-02    -1.6660e+00      0.231 (TRAH MIcro)
    9     dE    -7.894160e-02     1.803094e-02    -1.6661e+00      0.231 (TRAH MIcro)
    9     dE    -7.894152e-02     1.803498e-02    -1.6661e+00      0.231 (TRAH MIcro)
WARNING: 1 diagonal Hessian elements are negative!
   10       -921.024231988958     3.453607e-01                     0.995 (TRAH MAcro)   No
WARNING : negative HOMO - LUMO gap : -0.027994
   10     dE    -2.158063e-01     2.052316e+00    -2.6879e-01      0.778 (TRAH MIcro)
   10     dE    -3.541330e-01     5.675860e-01    -3.7571e-01      0.995 (TRAH MIcro)
   10     dE    -3.670017e-01     1.232687e-01    -4.0460e-01      0.995 (TRAH MIcro)
   10     dE    -3.681090e-01     6.991822e-02    -4.0767e-01      0.995 (TRAH MIcro)
   10     dE    -3.686402e-01     9.466249e-02    -4.0988e-01      0.995 (TRAH MIcro)
   10     dE    -3.686691e-01     1.072025e-01    -4.1013e-01      0.995 (TRAH MIcro)
   10     dE    -3.686959e-01     9.712729e-02    -4.1021e-01      0.995 (TRAH MIcro)
   10     dE    -3.687434e-01     1.249762e-01    -4.1037e-01      0.995 (TRAH MIcro)
   10     dE    -3.687777e-01     1.240582e-01    -4.1038e-01      0.995 (TRAH MIcro)
   10     dE    -3.687867e-01     1.195609e-01    -4.1041e-01      0.995 (TRAH MIcro)
   10     dE    -3.687946e-01     1.123456e-01    -4.1041e-01      0.995 (TRAH MIcro)
   10     dE    -3.688077e-01     1.152424e-01    -4.1046e-01      0.995 (TRAH MIcro)
   10     dE    -3.692156e-01     1.690257e-01    -4.1130e-01      0.995 (TRAH MIcro)
   10     dE    -3.692190e-01     1.671807e-01    -4.1130e-01      0.995 (TRAH MIcro)
   11       -921.516963443638     2.581246e-01                     1.194 (TRAH MAcro)   No
   11     dE    -9.443469e-04     3.876810e-01    -1.8886e-03      0.007 (TRAH MIcro)
   11     dE    -4.953342e-03     7.024071e-02    -9.8776e-03      0.054 (TRAH MIcro)
   11     dE    -5.511631e-03     3.599730e-02    -1.0970e-02      0.070 (TRAH MIcro)
   11     dE    -5.630245e-03     8.744727e-03    -1.1194e-02      0.077 (TRAH MIcro)
   12       -921.524744317368     9.962473e-03                     1.433 (TRAH MAcro)   No
   12     dE    -3.575536e-06     1.303379e-02    -7.1511e-06      0.001 (TRAH MIcro)
   12     dE    -1.175323e-05     4.486879e-03    -2.3506e-05      0.005 (TRAH MIcro)
   12     dE    -1.277804e-05     2.074353e-03    -2.5555e-05      0.006 (TRAH MIcro)
   12     dE    -1.292031e-05     3.256516e-04    -2.5840e-05      0.006 (TRAH MIcro)
   13       -921.524788311888     5.876300e-04                           (NR   MAcro)
   13     dE    -8.701317e-08     2.950614e-04                           (NR   MIcro)
   13     dE    -9.339250e-08     8.608439e-05                           (NR   MIcro)
   13     dE    -9.402232e-08     3.636840e-05                           (NR   MIcro)
   13     dE    -9.414423e-08     1.403424e-05                           (NR   MIcro)
   13     dE    -9.416128e-08     5.144499e-06                           (NR   MIcro)
   13     dE    -9.416331e-08     1.683948e-06                           (NR   MIcro)
   14       -921.524789895268     2.043057e-04                           (NR   MAcro)
   14     dE    -1.030129e-08     3.749560e-05                           (NR   MIcro)
   14     dE    -1.048801e-08     8.806386e-06                           (NR   MIcro)
   14     dE    -1.049402e-08     4.599732e-06                           (NR   MIcro)
   15       -921.524789011188     9.183597e-05                           (NR   MAcro)
   15     dE    -1.945458e-09     1.745748e-05                           (NR   MIcro)
   15     dE    -1.963255e-09     9.302763e-06                           (NR   MIcro)
   15     dE    -1.969888e-09     1.857945e-06                           (NR   MIcro)
   16       -921.524789295391     4.145437e-05                           (NR   MAcro)

               *****************************************************
               *                     SUCCESS                       *
               *           SCF CONVERGED AFTER 204 CYCLES          *
               *****************************************************

Old exchange energy                            =    -25.792767268 Eh
New exchange energy                            =    -25.792816886 Eh
Exchange energy change after final integration =     -0.000049617 Eh
Total energy after final integration           =   -921.524838913 Eh
Final COS-X integration done in                =    51.954 sec

----------------
TOTAL SCF ENERGY
----------------

Total Energy       :         -921.52483891 Eh          -25075.96570 eV

Components:
Nuclear Repulsion  :         1833.43210391 Eh           49890.22392 eV
Electronic Energy  :        -2754.95694283 Eh          -74966.18962 eV
One Electron Energy:        -4887.94519769 Eh         -133007.75081 eV
Two Electron Energy:         2132.98825487 Eh           58041.56119 eV
Max COSX asymmetry :            0.00052473 Eh               0.01428 eV

Warning: maximum COSX asymmetry larger than 0.0005 Eh!
Please consider increasing the grid.

Virial components:
Potential Energy   :        -1839.55568181 Eh          -50056.85494 eV
Kinetic Energy     :          918.03084290 Eh           24980.88924 eV
Virial Ratio       :            2.00380597


DFT components:
N(Alpha)           :       78.000214639397 electrons
N(Beta)            :       78.000214639397 electrons
N(Total)           :      156.000429278794 electrons
E(X)               :     -102.458408509800 Eh       
E(C)               :       -6.259017913306 Eh       
E(XC)              :     -108.717426423106 Eh       
DFET-embed. en.    :        0.000000000000 Eh       

---------------
SCF CONVERGENCE
---------------

  Last Energy change         ...   -2.8420e-07  Tolerance :   1.0000e-06
  Last Orbital Gradient      ...    4.1454e-05  Tolerance :   5.0000e-05
  Last Orbital Rotation      ...    5.4865e-05

             **** THE GBW FILE WAS UPDATED (pristine_coronene.gbw) ****
             **** DENSITY pristine_coronene.scfp WAS UPDATED ****
             **** ENERGY FILE WAS UPDATED (pristine_coronene.en.tmp) ****
             **** THE GBW FILE WAS UPDATED (pristine_coronene.gbw) ****
             **** DENSITY pristine_coronene.scfp WAS UPDATED ****
----------------
ORBITAL ENERGIES
----------------

  NO   OCC          E(Eh)            E(eV) 
   0   2.0000     -10.188731      -277.2495 
   1   2.0000     -10.188564      -277.2449 
   2   2.0000     -10.188562      -277.2449 
   3   2.0000     -10.188255      -277.2365 
   4   2.0000     -10.188253      -277.2365 
   5   2.0000     -10.188171      -277.2342 
   6   2.0000     -10.187931      -277.2277 
   7   2.0000     -10.187915      -277.2273 
   8   2.0000     -10.187911      -277.2272 
   9   2.0000     -10.187785      -277.2237 
  10   2.0000     -10.187782      -277.2236 
  11   2.0000     -10.187647      -277.2200 
  12   2.0000     -10.179856      -277.0080 
  13   2.0000     -10.179853      -277.0079 
  14   2.0000     -10.179847      -277.0077 
  15   2.0000     -10.179840      -277.0075 
  16   2.0000     -10.179835      -277.0074 
  17   2.0000     -10.179825      -277.0071 
  18   2.0000     -10.179200      -276.9901 
  19   2.0000     -10.179196      -276.9900 
  20   2.0000     -10.179190      -276.9898 
  21   2.0000     -10.179186      -276.9897 
  22   2.0000     -10.179182      -276.9896 
  23   2.0000     -10.179182      -276.9896 
  24   2.0000      -0.911201       -24.7950 
  25   2.0000      -0.874554       -23.7978 
  26   2.0000      -0.874552       -23.7978 
  27   2.0000      -0.827532       -22.5183 
  28   2.0000      -0.827529       -22.5182 
  29   2.0000      -0.810956       -22.0672 
  30   2.0000      -0.780116       -21.2280 
  31   2.0000      -0.765362       -20.8266 
  32   2.0000      -0.748334       -20.3632 
  33   2.0000      -0.748329       -20.3631 
  34   2.0000      -0.716419       -19.4948 
  35   2.0000      -0.716418       -19.4947 
  36   2.0000      -0.639816       -17.4103 
  37   2.0000      -0.639810       -17.4101 
  38   2.0000      -0.636398       -17.3173 
  39   2.0000      -0.636395       -17.3172 
  40   2.0000      -0.629099       -17.1186 
  41   2.0000      -0.566727       -15.4214 
  42   2.0000      -0.559650       -15.2289 
  43   2.0000      -0.543266       -14.7830 
  44   2.0000      -0.543263       -14.7829 
  45   2.0000      -0.541047       -14.7226 
  46   2.0000      -0.520855       -14.1732 
  47   2.0000      -0.479613       -13.0509 
  48   2.0000      -0.479606       -13.0507 
  49   2.0000      -0.463400       -12.6097 
  50   2.0000      -0.463388       -12.6094 
  51   2.0000      -0.459781       -12.5113 
  52   2.0000      -0.459764       -12.5108 
  53   2.0000      -0.432076       -11.7574 
  54   2.0000      -0.431255       -11.7351 
  55   2.0000      -0.425820       -11.5871 
  56   2.0000      -0.425802       -11.5867 
  57   2.0000      -0.422571       -11.4988 
  58   2.0000      -0.407075       -11.0771 
  59   2.0000      -0.407072       -11.0770 
  60   2.0000      -0.389007       -10.5854 
  61   2.0000      -0.389006       -10.5854 
  62   2.0000      -0.378992       -10.3129 
  63   2.0000      -0.378516       -10.3000 
  64   2.0000      -0.365610        -9.9487 
  65   2.0000      -0.364728        -9.9247 
  66   2.0000      -0.364716        -9.9244 
  67   2.0000      -0.335158        -9.1201 
  68   2.0000      -0.335157        -9.1201 
  69   2.0000      -0.322131        -8.7656 
  70   2.0000      -0.322110        -8.7651 
  71   2.0000      -0.319987        -8.7073 
  72   2.0000      -0.275158        -7.4874 
  73   2.0000      -0.272380        -7.4118 
  74   2.0000      -0.256181        -6.9710 
  75   2.0000      -0.256178        -6.9710 
  76   2.0000      -0.209083        -5.6894 
  77   2.0000      -0.209081        -5.6894 
  78   0.0000      -0.107517        -2.9257 
  79   0.0000      -0.061867        -1.6835 
  80   0.0000      -0.061864        -1.6834 
  81   0.0000      -0.025772        -0.7013 
  82   0.0000      -0.025767        -0.7011 
  83   0.0000      -0.008815        -0.2399 
  84   0.0000      -0.000000        -0.0000 
  85   0.0000      -0.000000        -0.0000 
  86   0.0000      -0.000000        -0.0000 
  87   0.0000       0.000000         0.0000 
  88   0.0000       0.000000         0.0000 
  89   0.0000       0.000000         0.0000 
  90   0.0000       0.002994         0.0815 
  91   0.0000       0.009166         0.2494 
  92   0.0000       0.009202         0.2504 
  93   0.0000       0.012449         0.3388 
  94   0.0000       0.021090         0.5739 
  95   0.0000       0.021306         0.5798 
  96   0.0000       0.032948         0.8966 
  97   0.0000       0.036091         0.9821 
  98   0.0000       0.036369         0.9897 
  99   0.0000       0.040927         1.1137 
 100   0.0000       0.047128         1.2824 
 101   0.0000       0.047132         1.2825 
 102   0.0000       0.051500         1.4014 
 103   0.0000       0.053630         1.4593 
 104   0.0000       0.063758         1.7349 
 105   0.0000       0.063856         1.7376 
 106   0.0000       0.064159         1.7459 
 107   0.0000       0.075931         2.0662 
 108   0.0000       0.075981         2.0676 
 109   0.0000       0.084929         2.3110 
 110   0.0000       0.084941         2.3114 
 111   0.0000       0.093927         2.5559 
 112   0.0000       0.093940         2.5562 
 113   0.0000       0.098034         2.6676 
 114   0.0000       0.101237         2.7548 
 115   0.0000       0.102619         2.7924 
 116   0.0000       0.107713         2.9310 
 117   0.0000       0.114867         3.1257 
 118   0.0000       0.116281         3.1642 
 119   0.0000       0.116918         3.1815 
 120   0.0000       0.122132         3.3234 
 121   0.0000       0.123228         3.3532 
 122   0.0000       0.137453         3.7403 
 123   0.0000       0.138379         3.7655 
 124   0.0000       0.138580         3.7710 
 125   0.0000       0.140925         3.8348 
 126   0.0000       0.140932         3.8350 
 127   0.0000       0.142491         3.8774 
 128   0.0000       0.142612         3.8807 
 129   0.0000       0.142717         3.8835 
 130   0.0000       0.160246         4.3605 
 131   0.0000       0.164052         4.4641 
 132   0.0000       0.164101         4.4654 
 133   0.0000       0.164406         4.4737 
 134   0.0000       0.164826         4.4851 
 135   0.0000       0.178098         4.8463 
 136   0.0000       0.179263         4.8780 
 137   0.0000       0.179348         4.8803 
 138   0.0000       0.183616         4.9964 
 139   0.0000       0.186122         5.0646 
 140   0.0000       0.186149         5.0654 
 141   0.0000       0.189131         5.1465 
 142   0.0000       0.189960         5.1691 
 143   0.0000       0.189983         5.1697 
 144   0.0000       0.190402         5.1811 
 145   0.0000       0.194498         5.2925 
 146   0.0000       0.194569         5.2945 
 147   0.0000       0.208395         5.6707 
 148   0.0000       0.208557         5.6751 
 149   0.0000       0.210700         5.7334 
 150   0.0000       0.210863         5.7379 
 151   0.0000       0.211077         5.7437 
 152   0.0000       0.220770         6.0075 
 153   0.0000       0.221767         6.0346 
 154   0.0000       0.228696         6.2231 
 155   0.0000       0.229005         6.2315 
 156   0.0000       0.230366         6.2686 
 157   0.0000       0.233160         6.3446 
 158   0.0000       0.234357         6.3772 
 159   0.0000       0.236324         6.4307 
 160   0.0000       0.237331         6.4581 
 161   0.0000       0.237807         6.4711 
 162   0.0000       0.238305         6.4846 
 163   0.0000       0.262787         7.1508 
 164   0.0000       0.263134         7.1603 
 165   0.0000       0.268240         7.2992 
 166   0.0000       0.268269         7.3000 
 167   0.0000       0.268665         7.3108 
 168   0.0000       0.269881         7.3438 
 169   0.0000       0.271268         7.3816 
 170   0.0000       0.271984         7.4011 
 171   0.0000       0.272841         7.4244 
 172   0.0000       0.273986         7.4555 
 173   0.0000       0.274212         7.4617 
 174   0.0000       0.275593         7.4993 
 175   0.0000       0.277062         7.5393 
 176   0.0000       0.285014         7.7556 
 177   0.0000       0.287971         7.8361 
 178   0.0000       0.288039         7.8379 
 179   0.0000       0.291913         7.9434 
 180   0.0000       0.299790         8.1577 
 181   0.0000       0.301213         8.1964 
 182   0.0000       0.303576         8.2607 
 183   0.0000       0.304861         8.2957 
 184   0.0000       0.310225         8.4416 
 185   0.0000       0.310238         8.4420 
 186   0.0000       0.319772         8.7014 
 187   0.0000       0.320667         8.7258 
 188   0.0000       0.325175         8.8484 
 189   0.0000       0.328224         8.9314 
 190   0.0000       0.342269         9.3136 
 191   0.0000       0.348352         9.4791 
 192   0.0000       0.363655         9.8955 
 193   0.0000       0.374246        10.1838 
 194   0.0000       0.378029        10.2867 
 195   0.0000       0.381515        10.3816 
 196   0.0000       0.382617        10.4115 
 197   0.0000       0.387173        10.5355 
 198   0.0000       0.388678        10.5765 
 199   0.0000       0.402616        10.9557 
 200   0.0000       0.406617        11.0646 
 201   0.0000       0.408873        11.1260 
 202   0.0000       0.412665        11.2292 
 203   0.0000       0.417667        11.3653 
 204   0.0000       0.421388        11.4666 
 205   0.0000       0.427943        11.6449 
 206   0.0000       0.442546        12.0423 
 207   0.0000       0.445824        12.1315 
 208   0.0000       0.458792        12.4844 
 209   0.0000       0.460421        12.5287 
 210   0.0000       0.465608        12.6698 
 211   0.0000       0.467365        12.7176 
 212   0.0000       0.472489        12.8571 
 213   0.0000       0.481236        13.0951 
 214   0.0000       0.498767        13.5721 
 215   0.0000       0.499316        13.5871 
 216   0.0000       0.501509        13.6468 
 217   0.0000       0.515633        14.0311 
 218   0.0000       0.516099        14.0438 
 219   0.0000       0.519864        14.1462 
 220   0.0000       0.521547        14.1920 
 221   0.0000       0.522967        14.2307 
 222   0.0000       0.528606        14.3841 
 223   0.0000       0.536311        14.5938 
 224   0.0000       0.537989        14.6394 
 225   0.0000       0.541049        14.7227 
 226   0.0000       0.541060        14.7230 
 227   0.0000       0.548716        14.9313 
 228   0.0000       0.559332        15.2202 
 229   0.0000       0.561346        15.2750 
 230   0.0000       0.561366        15.2756 
 231   0.0000       0.569346        15.4927 
 232   0.0000       0.569638        15.5006 
 233   0.0000       0.573890        15.6163 
 234   0.0000       0.577772        15.7220 
 235   0.0000       0.581100        15.8125 
 236   0.0000       0.585544        15.9335 
 237   0.0000       0.587705        15.9923 
 238   0.0000       0.596662        16.2360 
 239   0.0000       0.602260        16.3883 
 240   0.0000       0.610744        16.6192 
 241   0.0000       0.611071        16.6281 
 242   0.0000       0.614865        16.7313 
 243   0.0000       0.615763        16.7558 
 244   0.0000       0.621933        16.9237 
 245   0.0000       0.623333        16.9617 
 246   0.0000       0.623360        16.9625 
 247   0.0000       0.632091        17.2001 
 248   0.0000       0.632143        17.2015 
 249   0.0000       0.635856        17.3025 
 250   0.0000       0.637985        17.3605 
 251   0.0000       0.638379        17.3712 
 252   0.0000       0.657182        17.8828 
 253   0.0000       0.657422        17.8894 
 254   0.0000       0.665933        18.1209 
 255   0.0000       0.667335        18.1591 
 256   0.0000       0.668151        18.1813 
 257   0.0000       0.669000        18.2044 
 258   0.0000       0.671179        18.2637 
 259   0.0000       0.674132        18.3441 
 260   0.0000       0.674176        18.3453 
 261   0.0000       0.680890        18.5280 
 262   0.0000       0.689192        18.7539 
 263   0.0000       0.689204        18.7542 
 264   0.0000       0.715989        19.4831 
 265   0.0000       0.721101        19.6221 
 266   0.0000       0.732315        19.9273 
 267   0.0000       0.740258        20.1435 
 268   0.0000       0.742129        20.1943 
 269   0.0000       0.742274        20.1983 
 270   0.0000       0.745444        20.2846 
 271   0.0000       0.745460        20.2850 
 272   0.0000       0.749280        20.3890 
 273   0.0000       0.749563        20.3966 
 274   0.0000       0.768875        20.9222 
 275   0.0000       0.785439        21.3729 
 276   0.0000       0.785453        21.3733 
 277   0.0000       0.785501        21.3746 
 278   0.0000       0.790480        21.5101 
 279   0.0000       0.796384        21.6707 
 280   0.0000       0.822441        22.3798 
 281   0.0000       0.828010        22.5313 
 282   0.0000       0.882620        24.0173 
 283   0.0000       0.886299        24.1174 
 284   0.0000       0.886498        24.1228 
 285   0.0000       0.889456        24.2033 
 286   0.0000       0.891153        24.2495 
 287   0.0000       0.903206        24.5775 
 288   0.0000       0.905848        24.6494 
 289   0.0000       0.908296        24.7160 
 290   0.0000       0.914481        24.8843 
 291   0.0000       0.918140        24.9839 
 292   0.0000       0.930513        25.3205 
 293   0.0000       0.932006        25.3612 
 294   0.0000       0.938887        25.5484 
 295   0.0000       0.941072        25.6079 
 296   0.0000       0.942734        25.6531 
 297   0.0000       0.958464        26.0811 
 298   0.0000       0.962481        26.1904 
 299   0.0000       0.962722        26.1970 
 300   0.0000       0.974984        26.5307 
 301   0.0000       0.975116        26.5343 
 302   0.0000       0.976380        26.5686 
 303   0.0000       0.978798        26.6345 
 304   0.0000       0.984040        26.7771 
 305   0.0000       0.985920        26.8282 
 306   0.0000       0.986451        26.8427 
 307   0.0000       0.998868        27.1806 
 308   0.0000       0.998871        27.1807 
 309   0.0000       0.999812        27.2063 
 310   0.0000       0.999827        27.2067 
 311   0.0000       1.003924        27.3182 
 312   0.0000       1.006180        27.3796 
 313   0.0000       1.007020        27.4024 
 314   0.0000       1.007889        27.4260 
 315   0.0000       1.026370        27.9289 
 316   0.0000       1.036314        28.1995 
 317   0.0000       1.036611        28.2076 
 318   0.0000       1.038671        28.2637 
 319   0.0000       1.047378        28.5006 
 320   0.0000       1.047384        28.5008 
 321   0.0000       1.064452        28.9652 
 322   0.0000       1.064463        28.9655 
 323   0.0000       1.087631        29.5959 
 324   0.0000       1.095635        29.8137 
 325   0.0000       1.097211        29.8566 
 326   0.0000       1.098263        29.8852 
[...]
 761   87980.3    113.7      0.00038  -0.00150   0.00113   0.00002
 762   88024.5    113.6      0.00000  -0.00403  -0.00045  -0.00003
 763   88169.9    113.4     -0.00204  -0.14011  -0.08227  -0.00006
 764   88191.5    113.4      0.00239   0.07512  -0.13814   0.00001
 765   88208.7    113.4      0.00175   0.01406   0.02970   0.00007
 766   88221.5    113.4     -0.00027  -0.03171   0.01913  -0.00003
 767   88372.2    113.2     -0.00146  -0.03273  -0.01884   0.00001
 768   88376.1    113.2     -0.00012   0.03367  -0.01769   0.00002
 769   88391.2    113.1      0.01676  -0.63525  -0.04426   0.00004
 770   88391.6    113.1      0.00553   0.04244  -0.63497  -0.00001
 771   88429.2    113.1      0.00001  -0.00014   0.00042  -0.00654
 772   88450.1    113.1     -0.00084  -0.00046  -0.00010   0.00013
 773   88496.5    113.0      0.00004  -0.00000  -0.00003  -0.00017
 774   88580.9    112.9     -0.00123   0.59390   0.02088  -0.00004
 775   88581.8    112.9      0.01898  -0.02220   0.59414  -0.00008
 776   88796.9    112.6      0.00037  -0.00820   0.00265   0.00012
 777   88813.9    112.6     -0.00005   0.00074  -0.00078  -0.00006
 778   88816.6    112.6     -0.00014   0.00009   0.00019  -0.00005
 779   88828.3    112.6      0.00463  -0.00019  -0.00083  -0.00005
 780   88893.6    112.5     -0.01022   0.00005   0.00029   0.02669
 781   89079.7    112.3     -0.00741   0.00028   0.00008  -0.02086
 782   89145.3    112.2      0.00070  -0.00004   0.00013   0.01422
 783   89293.7    112.0     -0.00006   0.00001   0.00002   0.00043
 784   89321.8    112.0     -0.00116  -0.00001   0.00002   0.00462
 785   89338.0    111.9      0.00464   0.00005   0.00002  -0.00831
 786   89345.3    111.9     -0.00072  -0.00003  -0.00002   0.01180
 787   89358.5    111.9     -0.00004   0.00000   0.00003   0.01220
 788   89374.3    111.9     -0.00022  -0.00171   0.00265   0.00003
 789   89401.0    111.9     -0.00182   0.00016   0.00005  -0.03509
 790   89409.8    111.8     -0.00016   0.00153   0.00018  -0.00005
 791   89436.3    111.8     -0.00121  -0.00059  -0.00009  -0.00007
 792   89441.9    111.8     -0.00061   0.00005   0.00083  -0.00009
 793   89463.4    111.8     -0.00026  -0.00002   0.00003  -0.00377
 794   89483.3    111.8      0.00096  -0.00037  -0.00112   0.00009
 795   89597.8    111.6     -0.00768  -0.00019   0.00011   0.08760
 796   89612.7    111.6     -0.00028  -0.00005  -0.00004   0.01922
 797   89656.7    111.5      0.01280  -0.00010   0.00003   0.02813
 798   89667.4    111.5      0.00469   0.00006  -0.00005  -0.00901
 799   89689.4    111.5      0.00062  -0.00005  -0.00007   0.05394
 800   89694.1    111.5     -0.00681  -0.00003   0.00005  -0.05830
 801   89730.9    111.4     -0.00235  -0.00013  -0.00001  -0.20058
 802   89764.7    111.4      0.00011  -0.00023  -0.00030  -0.00055
 803   89785.7    111.4     -0.00507  -0.00000  -0.00006  -0.13373
 804   89799.4    111.4      0.00318   0.00010  -0.00002   0.08378
 805   89866.8    111.3      0.01796   0.00009  -0.00001  -0.49433
 806   89874.6    111.3      0.00096   0.00002  -0.00004   0.00631
 807   89884.6    111.3      0.00152  -0.00005  -0.00001  -0.01307
 808   89937.3    111.2     -0.00001  -0.00098   0.00131  -0.00036
 809   89996.8    111.1     -0.00056   0.00439  -0.00735   0.00008
 810   90006.8    111.1      0.00054   0.00026   0.00295   0.00007
 811   90008.9    111.1     -0.00143  -0.00011   0.00000   0.02856
 812   90063.5    111.0     -0.00635  -0.00006  -0.00005  -0.00966
 813   90089.9    111.0     -0.00011  -0.00128  -0.00159  -0.00001
 814   90108.6    111.0     -0.00031   0.00091   0.00055  -0.00004
 815   90139.3    110.9     -0.00696  -0.00133   0.00162   0.00004
 816   90219.4    110.8     -0.00249   0.00012   0.00000   0.01241
 817   90220.2    110.8      0.00078   0.00006   0.00002   0.01376
 818   90224.1    110.8     -0.00091   0.00013  -0.00000   0.00113
 819   90309.1    110.7     -0.00020  -0.00081  -0.00018  -0.00004
 820   90377.8    110.6     -0.02558  -0.06631   0.01396  -0.00006
 821   90380.0    110.6      0.00658  -0.01474  -0.06243   0.00008
 822   90418.7    110.6      0.01674  -0.00117  -0.00083  -0.00036
 823   90421.0    110.6      0.01415  -0.00187  -0.00357   0.00012
 824   90433.4    110.6     -0.00604  -0.00018   0.00130   0.00009
 825   90461.8    110.5     -0.00309  -0.00171   0.00421   0.00002
 826   90482.3    110.5      0.03072   0.00020  -0.00008   0.01430
 827   90503.1    110.5      0.00050   0.00297   0.00063   0.00011
 828   90531.5    110.5      0.00010  -0.00021  -0.00016   0.00116
 829   90553.0    110.4     -0.00191  -0.00007  -0.00012  -0.01104
 830   90565.1    110.4      0.00012  -0.00534  -0.00382   0.00010
 831   90634.1    110.3     -0.03448   0.00190   0.00063  -0.03566
 832   90712.9    110.2     -0.00231   0.00422  -0.00062  -0.00006
 833   90721.9    110.2      0.00246  -0.00022  -0.01021  -0.00017
 834   90756.3    110.2     -0.01801  -0.05578  -0.39222  -0.00004
 835   90766.4    110.2      0.02513   0.38624  -0.05894   0.00020
 836   90869.7    110.0      0.00030   0.00751  -0.00402   0.00002
 837   90890.5    110.0     -0.00007   0.00004   0.00014   0.01618
 838   90895.5    110.0      0.00001  -0.00002  -0.00005  -0.00270
 839   90904.9    110.0      0.00027   0.00087   0.00031   0.01861
 840   90939.7    110.0      0.00121  -0.00261   0.00768  -0.00005
 841   90987.2    109.9      0.00141   0.00009  -0.00007  -0.47455
 842   91059.7    109.8     -0.00128   0.00002  -0.01863  -0.00018
 843   91071.8    109.8      0.00278   0.19614  -0.00134   0.00009
 844   91088.5    109.8      0.00087  -0.05381  -0.00597  -0.00000
 845   91120.8    109.7      0.00073  -0.01864   0.01271   0.00002
 846   91141.0    109.7      0.00079   0.03997  -0.01310   0.00005
 847   91146.7    109.7     -0.00091   0.00325  -0.03270  -0.00012
 848   91173.3    109.7      0.00194  -0.01213   0.06836  -0.00001
 849   91186.0    109.7      0.00139   0.01728  -0.25311   0.00016
 850   91229.6    109.6      0.00155  -0.01944   0.00242  -0.00008
 851   91255.8    109.6      0.00056   0.00013   0.00032   0.00349
 852   91264.6    109.6     -0.00675  -0.30299  -0.13182  -0.00004
 853   91267.6    109.6     -0.00067  -0.13319   0.24889  -0.00006
 854   91301.8    109.5     -0.00008  -0.00025  -0.00012   0.00570
 855   91457.7    109.3      0.00057  -0.00013  -0.00005   0.00358
 856   91464.6    109.3      0.00000   0.00001   0.00007   0.00080
 857   91475.0    109.3      0.00054  -0.00014  -0.00000  -0.00598
 858   91488.1    109.3     -0.00034  -0.00008  -0.00006  -0.00873
 859   91498.6    109.3      0.00085  -0.13154  -0.08910  -0.00003
 860   91531.3    109.3     -0.00007   0.06099  -0.11631   0.00005
 861   91542.2    109.2     -0.00005   0.00001  -0.00007   0.00020
 862   91571.1    109.2      0.00070   0.00007   0.00015  -0.00514
 863   91603.2    109.2      0.00011   0.00017  -0.00015  -0.00050
 864   91701.2    109.0      0.01879  -0.03834   0.15078  -0.00028
 865   91713.8    109.0     -0.16437  -0.02662   0.10702  -0.00044
 866   91727.4    109.0     -0.22790   0.00678  -0.13409  -0.00111
 867   91734.8    109.0      0.36462   0.00021   0.00028  -0.21717
 868   91758.2    109.0      0.00033   0.00004   0.00017  -0.00044
 869   91805.3    108.9     -0.01238  -0.19719  -0.02431  -0.00007
 870   91821.7    108.9      0.02205  -0.00239  -0.00010   0.00228
 871   91822.4    108.9      0.00271  -0.00030  -0.00001   0.00027
 872   91830.9    108.9      0.00084   0.18631   0.00353   0.00004
 873   91901.9    108.8     -0.00117  -0.00001  -0.00002  -0.00021
 874   91905.3    108.8     -0.00948  -0.00022  -0.00001   0.00453
 875   91920.8    108.8     -0.00343  -0.00004   0.00011  -0.01435
 876   91992.9    108.7      0.00038   0.06654  -0.00381  -0.00006
 877   92009.7    108.7     -0.00035  -0.00282   0.00365   0.00008
 878   92038.0    108.7      0.00024   0.00424   0.02798   0.00004
 879   92098.3    108.6      0.00008   0.00772   0.00156   0.00002
 880   92128.1    108.5     -0.00159  -0.00023   0.00011  -0.01144
 881   92144.5    108.5     -0.00046  -0.00010  -0.00024  -0.00524
 882   92171.1    108.5      0.00006  -0.00030  -0.00016  -0.00137
 883   92185.4    108.5      0.02978  -0.05575  -0.40280  -0.00008
 884   92192.3    108.5     -0.06397  -0.34126   0.03629   0.00001
 885   92196.2    108.5      0.00044  -0.13364   0.06011  -0.00007
 886   92210.0    108.4     -0.00927   0.00076  -0.00055   0.00212
 887   92214.0    108.4      0.04864  -0.00058   0.00030  -0.00257
 888   92220.4    108.4     -0.01065   0.00092  -0.00024   0.01817
 889   92232.5    108.4     -0.00172  -0.00009   0.00020  -0.13701
 890   92241.9    108.4      0.00616   0.07829   0.00123  -0.00019
 891   92251.2    108.4      0.00283  -0.00705  -0.01732  -0.00020
 892   92343.0    108.3      0.00039  -0.00037  -0.00009  -0.00071
 893   92346.6    108.3     -0.00133   0.01657   0.00505  -0.00004
 894   92446.6    108.2      0.00796  -0.00535  -0.03147  -0.00013
 895   92477.7    108.1     -0.00015   0.00004   0.00013   0.01978
 896   92486.4    108.1     -0.00009  -0.00009  -0.00008  -0.01264
 897   92499.5    108.1     -0.00023  -0.00939   0.00959   0.00008
 898   92524.8    108.1      0.00050  -0.00744  -0.04328   0.00010
 899   92571.1    108.0      0.00229  -0.08151  -0.26018  -0.00016
 900   92579.0    108.0      0.02618   0.26149  -0.07821   0.00009
 901   92641.7    107.9     -0.00042  -0.03106   0.04377   0.00005
 902   92651.3    107.9      0.00597  -0.00024   0.00032   0.01501
 903   92658.8    107.9     -0.00889   0.00941  -0.01680   0.00022
 904   92715.0    107.9      0.06952   0.19887  -0.05732   0.00014
 905   92723.6    107.8     -0.13753  -0.00090  -0.00019   0.00311
 906   92732.1    107.8      0.20272   0.03627   0.22545   0.00005
 907   92735.5    107.8     -0.22466  -0.00021  -0.00135   0.00470
 908   92751.6    107.8      0.06646  -0.11854  -0.01443  -0.00016
 909   92804.3    107.8      0.00101  -0.00487  -0.00929  -0.00009
 910   92813.0    107.7     -0.00011  -0.00006   0.00002   0.00013
 911   92857.8    107.7     -0.00091  -0.00006  -0.00005  -0.00551
 912   92875.6    107.7     -0.00627  -0.00001  -0.00004  -0.00456
 913   92878.3    107.7      0.01191  -0.00154   0.00276  -0.00017
 914   92880.8    107.7     -0.00046  -0.00187  -0.00187  -0.00001
 915   92927.1    107.6      0.00332   0.00238   0.00458  -0.00011
 916   92970.9    107.6     -0.00504   0.00002  -0.00000   0.02703
 917   92977.9    107.6      0.00487   0.01133  -0.00442  -0.00013
 918   92989.1    107.5     -0.00645   0.00008   0.00001  -0.03348
 919   93027.8    107.5     -0.00006  -0.00099  -0.00672   0.00001
 920   93039.7    107.5      0.00092   0.00714   0.00886  -0.00007
 921   93080.5    107.4      0.00379  -0.05204   0.01463   0.00002
 922   93087.0    107.4     -0.00237  -0.03738  -0.07786   0.00005
 923   93089.5    107.4      0.00525  -0.05641   0.03504  -0.00001
 924   93141.3    107.4     -0.00083   0.01797  -0.00433   0.00005
 925   93153.8    107.3     -0.00109   0.00080   0.01319  -0.00006
 926   93182.2    107.3      0.00058   0.02087   0.00770   0.00008
 927   93254.9    107.2     -0.00153  -0.00004  -0.00001  -0.00472
 928   93270.5    107.2     -0.01321   0.00006  -0.00001   0.00551
 929   93283.7    107.2     -0.00073  -0.00127  -0.00630   0.00004
 930   93415.1    107.0     -0.12467  -0.00144   0.00048   0.02320
 931   93420.4    107.0     -0.00040  -0.01738  -0.00290   0.00016
 932   93430.8    107.0      0.05001   0.27597  -0.24376   0.00009
 933   93433.5    107.0     -0.00526   0.24411   0.27572   0.00009
 934   93457.9    107.0      0.08185  -0.00028  -0.00054  -0.01034
 935   93460.4    107.0      0.00403  -0.00054  -0.01268  -0.00053
 936   93491.9    107.0      0.00076  -0.00333  -0.01064   0.00001
 937   93654.8    106.8      0.00112   0.01325   0.00667  -0.00011
 938   93820.7    106.6     -0.00163   0.00001   0.00001  -0.00309
 939   93834.4    106.6     -0.01972   0.00107   0.00022  -0.00010
 940   93870.0    106.5     -0.00255   0.00291   0.00081   0.00039
 941   93877.0    106.5     -0.00415   0.00000   0.00004  -0.01179
 942   93893.6    106.5     -0.00076  -0.00002  -0.00003  -0.00003
 943   93987.7    106.4     -0.00057   0.00199  -0.00009   0.00038
 944   93994.4    106.4     -0.00058  -0.00072  -0.00026   0.00044
 945   94016.4    106.4      0.00032  -0.00001  -0.00006   0.00357
 946   94027.7    106.4     -0.00001  -0.00003   0.00003  -0.02840
 947   94221.9    106.1     -0.01449   0.00016  -0.00021   0.04918
 948   94244.0    106.1     -0.12981   0.00159  -0.00080   0.00100
 949   94255.6    106.1      0.07157  -0.00265  -0.00053  -0.00052
 950   94295.6    106.0      0.00170   0.00003   0.00003  -0.05342
 951   94326.3    106.0     -0.09099   0.00090   0.00001   0.00880
 952   94328.6    106.0     -0.02740   0.00034   0.00016   0.00434
 953   94339.9    106.0      0.22268  -0.00003   0.00030  -0.61785
 954   94359.1    106.0     -0.06702   0.00044  -0.00021  -1.05159
 955   94390.7    105.9     -0.02122   0.00174   0.00096   0.00273
 956   94407.2    105.9      0.00461   0.00013  -0.00013  -0.00275
 957   94422.7    105.9     -0.02811   0.00016   0.00009  -0.36765
 958   94433.9    105.9      0.00044  -0.00154  -0.00030   0.00160
 959   94442.4    105.9     -0.02169   0.00020  -0.00003  -0.67578
 960   94560.3    105.8     -0.00616   0.00497   0.00443  -0.00059
 961   94568.0    105.7     -0.00879  -0.00108  -0.00051   0.20296
 962   94574.6    105.7     -0.00316   0.29218   0.26992   0.00122
 963   94576.0    105.7     -0.06043  -0.26625   0.29090  -0.00106
 964   94579.7    105.7      0.00069  -0.04568   0.03445   0.00092
 965   94596.3    105.7     -0.00118   0.00014   0.00048   0.10373
 966   94599.7    105.7     -0.00143  -0.00034  -0.00020  -0.17975
 967   94680.4    105.6     -0.00654   0.00004  -0.00014   0.02692
 968   94736.1    105.6     -0.01904   0.00325  -0.01257   0.00037
 969   94744.8    105.5      0.10465  -0.00577  -0.00978  -0.00084
 970   94768.2    105.5      0.23915  -0.00258   0.00215   0.00108
 971   94784.3    105.5      0.00002   0.00093  -0.00096   0.00009
 972   94866.3    105.4     -0.02445  -0.00013   0.00024   0.08071
 973   94880.0    105.4     -0.04331  -0.00000   0.00021   0.12619
 974   94919.3    105.4     -0.01417   0.00630  -0.00614  -0.00060
 975   94927.8    105.3      0.00433  -0.00217  -0.00137   0.00025
 976   94932.0    105.3      0.00097  -0.00008   0.00001  -0.02948
 977   94933.9    105.3     -0.00062   0.00007   0.00002   0.00039
 978   94950.2    105.3     -0.03743  -0.00005   0.00011   0.13284
 979   95011.6    105.3      0.00005   0.00176   0.00023  -0.00003
 980   95052.9    105.2     -0.00029   0.00156   0.00193  -0.00005
 981   95057.7    105.2      0.00076  -0.00141  -0.00315  -0.00010
 982   95100.7    105.2     -0.03086  -0.00091  -0.00301  -0.00673
 983   95115.8    105.1      0.01156   0.39413  -0.12773   0.00013
 984   95117.4    105.1      0.02744   0.12827   0.39502  -0.00028
 985   95206.0    105.0     -0.00271   0.00018   0.00002   0.00344
 986   95210.0    105.0     -0.00552   0.00011  -0.00011  -0.00461
 987   95250.6    105.0     -0.00259   0.03166  -0.06065   0.00010
 988   95265.9    105.0      0.00808  -0.05031  -0.01137  -0.00008
 989   95302.6    104.9     -0.00258  -0.02361  -0.02918  -0.00001
 990   95378.3    104.8      0.00303   0.03404  -0.30360  -0.00010
 991   95378.4    104.8      0.00291  -0.30393  -0.03363  -0.00006
 992   95428.7    104.8     -0.00844   0.00004   0.00055   0.02375
 993   95441.7    104.8     -0.00008   0.00355   0.00536   0.00002
 994   95453.6    104.8      0.00523  -0.01451   0.00075   0.00006
 995   95455.0    104.8      0.00235   0.00016  -0.00016  -0.00420
 996   95489.0    104.7     -0.00224   0.00989   0.02025   0.00029
 997   95523.3    104.7     -0.00847   0.00918   0.00239   0.00023
 998   95576.6    104.6      0.00009  -0.00123   0.00044  -0.00004
 999   95699.6    104.5      0.00043   0.00007  -0.00004  -0.00448
 1000   95703.0    104.5     -0.00042   0.00007  -0.00005   0.01046

Total run time:    23819.747 sec

           *** ORCA-CIS/TD-DFT FINISHED WITHOUT ERROR ***

Maximum memory used throughout the entire CIS-calculation: 956.5 MB

-----------------------
CIS/TD-DFT TOTAL ENERGY
-----------------------

    E(SCF)  =   -921.524838913 Eh
    DE(CIS) =      0.084519991 Eh (Root  1)
    ----------------------------- ---------
    E(tot)  =   -921.440318922 Eh



-------------------------------------------------------------------------------
                          DFT DISPERSION CORRECTION                            
                                                                               
                                 DFTD4 V2.5                                    
-------------------------------------------------------------------------------
The B3LYP functional is recognized
Active option DFTDOPT                   ...         5   

Starting D4
-------------------------   ----------------
Dispersion correction           -0.105135671
-------------------------   ----------------


-------------------------   --------------------
FINAL SINGLE POINT ENERGY      -921.545454592682
-------------------------   --------------------


                            ***************************************
                            *     ORCA property calculations      *
                            ***************************************

                                    ---------------------
                                    Active property flags
                                    ---------------------
   (+) Dipole Moment


------------------------------------------------------------------------------
                       ORCA ELECTRIC PROPERTIES CALCULATION
------------------------------------------------------------------------------

Dipole Moment Calculation                       ... on
Quadrupole Moment Calculation                   ... off
Polarizability Calculation                      ... off
GBWName                                         ... pristine_coronene.gbw
Electron density                                ... pristine_coronene.scfp
The origin for moment calculation is the CENTER OF MASS  = (-0.000000, -0.000000 -0.000387)

-------------
DIPOLE MOMENT
-------------
                                X             Y             Z
Electronic contribution:     -0.00002       0.00002       0.00001
Nuclear contribution   :      0.00000       0.00000      -0.00000
                        -----------------------------------------
Total Dipole Moment    :     -0.00002       0.00002       0.00000
                        -----------------------------------------
Magnitude (a.u.)       :      0.00003
Magnitude (Debye)      :      0.00008



--------------------
Rotational spectrum 
--------------------
 
Rotational constants in cm-1:     0.011153     0.011152     0.005576 
Rotational constants in MHz :   334.354164   334.340145   167.173577 

 Dipole components along the rotational axes: 
x,y,z [a.u.] :     0.000006     0.000029     0.000004 
x,y,z [Debye]:     0.000016     0.000073     0.000010 

 

Timings for individual modules:

Sum of individual times         ...    26165.218 sec (= 436.087 min)
GTO integral calculation        ...        0.988 sec (=   0.016 min)   0.0 %
SCF iterations                  ...     2344.275 sec (=  39.071 min)   9.0 %
CIS module                      ...    23819.955 sec (= 396.999 min)  91.0 %
                             ****ORCA TERMINATED NORMALLY****
TOTAL RUN TIME: 0 days 7 hours 16 minutes 7 seconds 353 msec
