
                                 *****************
                                 * O   R   C   A *
                                 *****************

                                            #,                                       
                                            ###                                      
                                            ####                                     
                                            #####                                    
                                            ######                                   
                                           ########,                                 
                                     ,,################,,,,,                         
                               ,,#################################,,                 
                          ,,##########################################,,             
                       ,#########################################, ''#####,          
                    ,#############################################,,   '####,        
                  ,##################################################,,,,####,       
                ,###########''''           ''''###############################       
              ,#####''   ,,,,##########,,,,          '''####'''          '####       
            ,##' ,,,,###########################,,,                        '##       
           ' ,,###''''                  '''############,,,                           
         ,,##''                                '''############,,,,        ,,,,,,###''
      ,#''                                            '''#######################'''  
     '                                                          ''''####''''         
             ,#######,   #######,   ,#######,      ##                                
            ,#'     '#,  ##    ##  ,#'     '#,    #''#        ######   ,####,        
            ##       ##  ##   ,#'  ##            #'  '#       #        #'  '#        
            ##       ##  #######   ##           ,######,      #####,   #    #        
            '#,     ,#'  ##    ##  '#,     ,#' ,#      #,         ##   #,  ,#        
             '#######'   ##     ##  '#######'  #'      '#     #####' # '####'        



                  #######################################################
                  #                        -***-                        #
                  #          Department of theory and spectroscopy      #
                  #    Directorship and core code : Frank Neese         #
                  #        Max Planck Institute fuer Kohlenforschung    #
                  #                Kaiser Wilhelm Platz 1               #
                  #                 D-45470 Muelheim/Ruhr               #
                  #                      Germany                        #
                  #                                                     #
                  #                  All rights reserved                #
                  #                        -***-                        #
                  #######################################################



                         Program Version 5.0.4 -  RELEASE  -

 With contributions from (in alphabetic order):
   Daniel Aravena         : Magnetic Suceptibility
   Michael Atanasov       : Ab Initio Ligand Field Theory (pilot matlab implementation)
   Alexander A. Auer      : GIAO ZORA, VPT2 properties, NMR spectrum
   Ute Becker             : Parallelization
   Giovanni Bistoni       : ED, misc. LED, open-shell LED, HFLD
   Martin Brehm           : Molecular dynamics
   Dmytro Bykov           : SCF Hessian
   Vijay G. Chilkuri      : MRCI spin determinant printing, contributions to CSF-ICE
   Dipayan Datta          : RHF DLPNO-CCSD density
   Achintya Kumar Dutta   : EOM-CC, STEOM-CC
   Dmitry Ganyushin       : Spin-Orbit,Spin-Spin,Magnetic field MRCI
   Miquel Garcia          : C-PCM and meta-GGA Hessian, CC/C-PCM, Gaussian charge scheme
   Yang Guo               : DLPNO-NEVPT2, F12-NEVPT2, CIM, IAO-localization
   Andreas Hansen         : Spin unrestricted coupled pair/coupled cluster methods
   Benjamin Helmich-Paris : MC-RPA, TRAH-SCF, COSX integrals
   Lee Huntington         : MR-EOM, pCC
   Robert Izsak           : Overlap fitted RIJCOSX, COSX-SCS-MP3, EOM
   Marcus Kettner         : VPT2
   Christian Kollmar      : KDIIS, OOCD, Brueckner-CCSD(T), CCSD density, CASPT2, CASPT2-K
   Simone Kossmann        : Meta GGA functionals, TD-DFT gradient, OOMP2, MP2 Hessian
   Martin Krupicka        : Initial AUTO-CI
   Lucas Lang             : DCDCAS
   Marvin Lechner         : AUTO-CI (C++ implementation), FIC-MRCC
   Dagmar Lenk            : GEPOL surface, SMD
   Dimitrios Liakos       : Extrapolation schemes; Compound Job, initial MDCI parallelization
   Dimitrios Manganas     : Further ROCIS development; embedding schemes
   Dimitrios Pantazis     : SARC Basis sets
   Anastasios Papadopoulos: AUTO-CI, single reference methods and gradients
   Taras Petrenko         : DFT Hessian,TD-DFT gradient, ASA, ECA, R-Raman, ABS, FL, XAS/XES, NRVS
   Peter Pinski           : DLPNO-MP2, DLPNO-MP2 Gradient
   Christoph Reimann      : Effective Core Potentials
   Marius Retegan         : Local ZFS, SOC
   Christoph Riplinger    : Optimizer, TS searches, QM/MM, DLPNO-CCSD(T), (RO)-DLPNO pert. Triples
   Tobias Risthaus        : Range-separated hybrids, TD-DFT gradient, RPA, STAB
   Michael Roemelt        : Original ROCIS implementation
   Masaaki Saitow         : Open-shell DLPNO-CCSD energy and density
   Barbara Sandhoefer     : DKH picture change effects
   Avijit Sen             : IP-ROCIS
   Kantharuban Sivalingam : CASSCF convergence, NEVPT2, FIC-MRCI
   Bernardo de Souza      : ESD, SOC TD-DFT
   Georgi Stoychev        : AutoAux, RI-MP2 NMR, DLPNO-MP2 response
   Willem Van den Heuvel  : Paramagnetic NMR
   Boris Wezisla          : Elementary symmetry handling
   Frank Wennmohs         : Technical directorship


 We gratefully acknowledge several colleagues who have allowed us to
 interface, adapt or use parts of their codes:
   Stefan Grimme, W. Hujo, H. Kruse, P. Pracht,  : VdW corrections, initial TS optimization,
                  C. Bannwarth, S. Ehlert          DFT functionals, gCP, sTDA/sTD-DF
   Ed Valeev, F. Pavosevic, A. Kumar             : LibInt (2-el integral package), F12 methods
   Garnet Chan, S. Sharma, J. Yang, R. Olivares  : DMRG
   Ulf Ekstrom                                   : XCFun DFT Library
   Mihaly Kallay                                 : mrcc  (arbitrary order and MRCC methods)
   Jiri Pittner, Ondrej Demel                    : Mk-CCSD
   Frank Weinhold                                : gennbo (NPA and NBO analysis)
   Christopher J. Cramer and Donald G. Truhlar   : smd solvation model
   Lars Goerigk                                  : TD-DFT with DH, B97 family of functionals
   V. Asgeirsson, H. Jonsson                     : NEB implementation
   FAccTs GmbH                                   : IRC, NEB, NEB-TS, DLPNO-Multilevel, CI-OPT
                                                   MM, QMMM, 2- and 3-layer-ONIOM, Crystal-QMMM,
                                                   LR-CPCM, SF, NACMEs, symmetry and pop. for TD-DFT,
                                                   nearIR, NL-DFT gradient (VV10), updates on ESD,
                                                   ML-optimized integration grids
   S Lehtola, MJT Oliveira, MAL Marques          : LibXC Library
   Liviu Ungur et al                             : ANISO software


 Your calculation uses the libint2 library for the computation of 2-el integrals
 For citations please refer to: http://libint.valeyev.net

 Your ORCA version has been built with support for libXC version: 5.1.0
 For citations please refer to: https://tddft.org/programs/libxc/

 This ORCA versions uses:
   CBLAS   interface :  Fast vector & matrix operations
   LAPACKE interface :  Fast linear algebra routines
   Shared memory     :  Shared parallel matrices


Your calculation utilizes the atom-pairwise dispersion correction
based on tight binding partial charges (D4)
Cite in your paper:
E.Caldeweyher, C.Bannwarth, S.Grimme, J.Chem.Phys., (2017), 147, 034112.
E.Caldeweyher, S.Ehlert, A.Hansen, H.Neugebauer, S.Grimme, J.Chem.Phys., (2018), in progress.
   

================================================================================

----- Orbital basis set information -----
Your calculation utilizes the basis: 6-311+G**
   H, Li - Ne  : R. Krishnan, J. S. Binkley, R. Seeger and J. A. Pople, J. Chem. Phys. 72, 650 (1980).
   Na - Ar     : A. D. McLean and G. S. Chandler J. Chem. Phys. 72, 5639, (1980).
   K  - Ca     : J.-P. Blaudeau, M. P. McGrath, L. A. Curtiss and L. Radom, J. Chem. Phys. 107, 5016 (1997).
   Ga - Kr     : L. A. Curtiss, M. P. McGrath, J.-P. Blandeau, N. E. Davis, R. C. Binning and L. Radom, J. Chem. Phys. 103, 6104 (1995).
   Pol./Diff.
   H, Li - Cl  : T. Clark, J. Chandrasekhar and P. v. R. Schleyer, J. Comp. Chem. 4, 294 (1983).
   H - Ne      : M. J. Frisch, J. A. Pople and J. S. Binkley, J. Chem. Phys. 80, 3265 (1984).

----- AuxJ basis set information -----
Your calculation utilizes the auxiliary basis: def2/J
   F. Weigend, Phys. Chem. Chem. Phys. 8, 1057 (2006).

================================================================================
                                        WARNINGS
                       Please study these warnings very carefully!
================================================================================

INFO   : Checking CIS options ...

WARNING: CIS/ROCIS methods need fully converged wavefunctions
  ===> : Setting SCFConvForced true
         You can overwrite this default with %scf ConvForced false 


INFO   : the flag for use of the SHARK integral package has been found!

================================================================================
                                       INPUT FILE
================================================================================
NAME = 4HCyclopentadefphenanthrene_spectra.inp
|  1> !B3LYP 6-311+G**  D4
|  2> 
|  3> %maxcore 5000
|  4> %pal
|  5> nprocs 7
|  6> end
|  7> 
|  8> %TDDFT
|  9>   NROOTS 1000
| 10>   END
| 11> 
| 12> %scf
| 13> stabperform true
| 14> STABDTol 1e-5
| 15> STABRTol 1e-5
| 16> end
| 17>   
| 18> * XYZ 0 1
| 19>   C   -2.85804262620234      0.96205731055849     -0.00024781794534
| 20>   C   -3.38212974774615     -0.32542544390044     -0.00027950179387
| 21>   C   -2.57434054602811     -1.49220589878392     -0.00020944407824
| 22>   C   -1.20213496458839     -1.34019598603821     -0.00010756769321
| 23>   C   -0.70354425467009     -0.02915696163845     -0.00007980395732
| 24>   C   0.70354436430975     -0.02915702599973      0.00003872841576
| 25>   C   1.20213506912154     -1.34019600276180      0.00009674404448
| 26>   C   2.57434066856095     -1.49220593535948      0.00023080977270
| 27>   C   3.38212990707193     -0.32542550071222      0.00029684688193
| 28>   C   2.85804250406319      0.96205712403194      0.00023657563411
| 29>   C   1.45620697336320      1.14754235547777      0.00010298115728
| 30>   C   0.68728742458304      2.37021970199293      0.00003473863639
| 31>   C   -0.68728760345817      2.37021964661794     -0.00008087423019
| 32>   C   -1.45620716600416      1.14754224913620     -0.00014200931075
| 33>   C   0.00000000029020     -2.29501964228557     -0.00000437470101
| 34>   H   -3.52787943202686      1.81680914737772     -0.00030676672356
| 35>   H   -4.46079041348607     -0.44804017785465     -0.00035765271375
| 36>   H   -3.04788030149248     -2.46924005076700     -0.00023610333064
| 37>   H   3.04788036688112     -2.46924014341087      0.00028841698368
| 38>   H   4.46079064734493     -0.44804001440018      0.00040157447317
| 39>   H   3.52787939979912      1.81680888911365      0.00029441431687
| 40>   H   1.21505320581264      3.31966640097511      0.00007728905462
| 41>   H   -1.21505329375483      3.31966638841039     -0.00012584455256
| 42>   H   -0.00007476748188     -2.94902805869585      0.87870911292838
| 43>   H   0.00007458573792     -2.94901237108377     -0.87873047126893
| 44> **                         ****END OF INPUT****
================================================================================

                       ****************************
                       * Single Point Calculation *
                       ****************************

---------------------------------
CARTESIAN COORDINATES (ANGSTROEM)
---------------------------------
  C     -2.858043    0.962057   -0.000248
  C     -3.382130   -0.325425   -0.000280
  C     -2.574341   -1.492206   -0.000209
  C     -1.202135   -1.340196   -0.000108
  C     -0.703544   -0.029157   -0.000080
  C      0.703544   -0.029157    0.000039
  C      1.202135   -1.340196    0.000097
  C      2.574341   -1.492206    0.000231
  C      3.382130   -0.325426    0.000297
  C      2.858043    0.962057    0.000237
  C      1.456207    1.147542    0.000103
  C      0.687287    2.370220    0.000035
  C     -0.687288    2.370220   -0.000081
  C     -1.456207    1.147542   -0.000142
  C      0.000000   -2.295020   -0.000004
  H     -3.527879    1.816809   -0.000307
  H     -4.460790   -0.448040   -0.000358
  H     -3.047880   -2.469240   -0.000236
  H      3.047880   -2.469240    0.000288
  H      4.460791   -0.448040    0.000402
  H      3.527879    1.816809    0.000294
  H      1.215053    3.319666    0.000077
  H     -1.215053    3.319666   -0.000126
  H     -0.000075   -2.949028    0.878709
  H      0.000075   -2.949012   -0.878730

----------------------------
CARTESIAN COORDINATES (A.U.)
----------------------------
  NO LB      ZA    FRAG     MASS         X           Y           Z
   0 C     6.0000    0    12.011   -5.400918    1.818025   -0.000468
   1 C     6.0000    0    12.011   -6.391299   -0.614965   -0.000528
   2 C     6.0000    0    12.011   -4.864799   -2.819860   -0.000396
   3 C     6.0000    0    12.011   -2.271706   -2.532603   -0.000203
   4 C     6.0000    0    12.011   -1.329506   -0.055099   -0.000151
   5 C     6.0000    0    12.011    1.329506   -0.055099    0.000073
   6 C     6.0000    0    12.011    2.271706   -2.532603    0.000183
   7 C     6.0000    0    12.011    4.864799   -2.819861    0.000436
   8 C     6.0000    0    12.011    6.391299   -0.614965    0.000561
   9 C     6.0000    0    12.011    5.400918    1.818024    0.000447
  10 C     6.0000    0    12.011    2.751832    2.168541    0.000195
  11 C     6.0000    0    12.011    1.298785    4.479066    0.000066
  12 C     6.0000    0    12.011   -1.298785    4.479066   -0.000153
  13 C     6.0000    0    12.011   -2.751833    2.168541   -0.000268
  14 C     6.0000    0    12.011    0.000000   -4.336959   -0.000008
  15 H     1.0000    0     1.008   -6.666726    3.433272   -0.000580
  16 H     1.0000    0     1.008   -8.429672   -0.846673   -0.000676
  17 H     1.0000    0     1.008   -5.759659   -4.666187   -0.000446
  18 H     1.0000    0     1.008    5.759659   -4.666188    0.000545
  19 H     1.0000    0     1.008    8.429673   -0.846673    0.000759
  20 H     1.0000    0     1.008    6.666726    3.433271    0.000556
  21 H     1.0000    0     1.008    2.296118    6.273260    0.000146
  22 H     1.0000    0     1.008   -2.296118    6.273260   -0.000238
  23 H     1.0000    0     1.008   -0.000141   -5.572855    1.660520
  24 H     1.0000    0     1.008    0.000141   -5.572826   -1.660560

--------------------------------
INTERNAL COORDINATES (ANGSTROEM)
--------------------------------
 C      0   0   0     0.000000000000     0.00000000     0.00000000
 C      1   0   0     1.390064442751     0.00000000     0.00000000
 C      2   1   0     1.419119455585   123.15480496     0.00000000
 C      3   2   1     1.380599573260   118.37442855     0.00000000
 C      4   3   2     1.402646078056   117.14323399     0.00000000
 C      5   4   3     1.407088623972   110.82190487   179.99943725
 C      6   5   4     1.402646032640   110.82191070     0.00000000
 C      7   6   5     1.380599596087   117.14323531   180.00077487
 C      8   7   6     1.419119459697   118.37442950     0.00000000
 C      9   8   7     1.390064429673   123.15479043     0.00000000
 C      6   5   4     1.396825845109   122.60455749   180.00066354
 C     11   6   5     1.444360471224   115.23039909     0.00000000
 C     12  11   6     1.374575032903   122.16503848     0.00000000
 C      5   4   3     1.396825864095   126.57351818     0.00000000
 C      4   3   2     1.535192723720   135.21949700   179.99972402
 H      1   2   3     1.085947536697   119.76609837   179.99990184
 H      2   1   3     1.085607300503   118.63459335   179.99975465
 H      3   2   1     1.085741974346   119.44613958   179.99980467
 H      8   7   6     1.085742001079   122.17942872   179.99971988
 H      9   8   7     1.085607351919   118.21061537   180.00004135
 H     10   9   8     1.085947535632   119.76607945   179.99987127
 H     12  11   6     1.086271492701   118.76673513   180.00014261
 H     13  12  11     1.086271486037   119.06821649   179.99986775
 H     15   4   3     1.095383224113   111.79861681   300.23494182
 H     15   4   3     1.095383972712   111.79798497    59.76784351

---------------------------
INTERNAL COORDINATES (A.U.)
---------------------------
 C      0   0   0     0.000000000000     0.00000000     0.00000000
 C      1   0   0     2.626841105302     0.00000000     0.00000000
 C      2   1   0     2.681747122374   123.15480496     0.00000000
 C      3   2   1     2.608955094070   118.37442855     0.00000000
 C      4   3   2     2.650616950345   117.14323399     0.00000000
 C      5   4   3     2.659012145464   110.82190487   179.99943725
 C      6   5   4     2.650616864520   110.82191070     0.00000000
 C      7   6   5     2.608955137206   117.14323531   180.00077487
 C      8   7   6     2.681747130146   118.37442950     0.00000000
 C      9   8   7     2.626841080588   123.15479043     0.00000000
 C      6   5   4     2.639618304040   122.60455749   180.00066354
 C     11   6   5     2.729445729275   115.23039909     0.00000000
 C     12  11   6     2.597570362713   122.16503848     0.00000000
 C      5   4   3     2.639618339918   126.57351818     0.00000000
 C      4   3   2     2.901093810619   135.21949700   179.99972402
 H      1   2   3     2.052143440163   119.76609837   179.99990184
 H      2   1   3     2.051500486936   118.63459335   179.99975465
 H      3   2   1     2.051754983617   119.44613958   179.99980467
 H      8   7   6     2.051755034134   122.17942872   179.99971988
 H      9   8   7     2.051500584099   118.21061537   180.00004135
 H     10   9   8     2.052143438151   119.76607945   179.99987127
 H     12  11   6     2.052755628291   118.76673513   180.00014261
 H     13  12  11     2.052755615698   119.06821649   179.99986775
 H     15   4   3     2.069974305265   111.79861681   300.23494182
 H     15   4   3     2.069975719912   111.79798497    59.76784351

---------------------
BASIS SET INFORMATION
---------------------
There are 2 groups of distinct atoms

 Group   1 Type C   : 12s6p1d contracted to 5s4p1d pattern {63111/3111/1}
 Group   2 Type H   : 5s1p contracted to 3s1p pattern {311/1}

Atom   0C    basis set group =>   1
Atom   1C    basis set group =>   1
Atom   2C    basis set group =>   1
Atom   3C    basis set group =>   1
Atom   4C    basis set group =>   1
Atom   5C    basis set group =>   1
Atom   6C    basis set group =>   1
Atom   7C    basis set group =>   1
Atom   8C    basis set group =>   1
Atom   9C    basis set group =>   1
Atom  10C    basis set group =>   1
Atom  11C    basis set group =>   1
Atom  12C    basis set group =>   1
Atom  13C    basis set group =>   1
Atom  14C    basis set group =>   1
Atom  15H    basis set group =>   2
Atom  16H    basis set group =>   2
Atom  17H    basis set group =>   2
Atom  18H    basis set group =>   2
Atom  19H    basis set group =>   2
Atom  20H    basis set group =>   2
Atom  21H    basis set group =>   2
Atom  22H    basis set group =>   2
Atom  23H    basis set group =>   2
Atom  24H    basis set group =>   2
---------------------------------
AUXILIARY/J BASIS SET INFORMATION
---------------------------------
There are 2 groups of distinct atoms

 Group   1 Type C   : 12s5p4d2f1g contracted to 6s4p3d1f1g pattern {711111/2111/211/2/1}
 Group   2 Type H   : 5s2p1d contracted to 3s1p1d pattern {311/2/1}

Atom   0C    basis set group =>   1
Atom   1C    basis set group =>   1
Atom   2C    basis set group =>   1
Atom   3C    basis set group =>   1
Atom   4C    basis set group =>   1
Atom   5C    basis set group =>   1
Atom   6C    basis set group =>   1
Atom   7C    basis set group =>   1
Atom   8C    basis set group =>   1
Atom   9C    basis set group =>   1
Atom  10C    basis set group =>   1
Atom  11C    basis set group =>   1
Atom  12C    basis set group =>   1
Atom  13C    basis set group =>   1
Atom  14C    basis set group =>   1
Atom  15H    basis set group =>   2
Atom  16H    basis set group =>   2
Atom  17H    basis set group =>   2
Atom  18H    basis set group =>   2
Atom  19H    basis set group =>   2
Atom  20H    basis set group =>   2
Atom  21H    basis set group =>   2
Atom  22H    basis set group =>   2
Atom  23H    basis set group =>   2
Atom  24H    basis set group =>   2


           ************************************************************
           *        Program running with 7 parallel MPI-processes     *
           *              working on a common directory               *
           ************************************************************
------------------------------------------------------------------------------
                           ORCA GTO INTEGRAL CALCULATION
                           -- RI-GTO INTEGRALS CHOSEN --
------------------------------------------------------------------------------
------------------------------------------------------------------------------
                   ___                                                        
                  /   \      - P O W E R E D   B Y -                         
                 /     \                                                     
                 |  |  |   _    _      __       _____    __    __             
                 |  |  |  | |  | |    /  \     |  _  \  |  |  /  |          
                  \  \/   | |  | |   /    \    | | | |  |  | /  /          
                 / \  \   | |__| |  /  /\  \   | |_| |  |  |/  /          
                |  |  |   |  __  | /  /__\  \  |    /   |      \           
                |  |  |   | |  | | |   __   |  |    \   |  |\   \          
                \     /   | |  | | |  |  |  |  | |\  \  |  | \   \       
                 \___/    |_|  |_| |__|  |__|  |_| \__\ |__|  \__/        
                                                                              
                      - O R C A' S   B I G   F R I E N D -                    
                                      &                                       
                       - I N T E G R A L  F E E D E R -                       
                                                                              
 v1 FN, 2020, v2 2021                                                         
------------------------------------------------------------------------------


Reading SHARK input file 4HCyclopentadefphenanthrene_spectra.SHARKINP.tmp ... ok
----------------------
SHARK INTEGRAL PACKAGE
----------------------

Number of atoms                             ...     25
Number of basis functions                   ...    390
Number of shells                            ...    190
Maximum angular momentum                    ...      2
Integral batch strategy                     ... SHARK/LIBINT Hybrid
RI-J (if used) integral strategy            ... SPLIT-RIJ (Revised 2003 algorithm where possible)
Printlevel                                  ...      1
Contraction scheme used                     ... SEGMENTED contraction
Coulomb Range Separation                    ... NOT USED
Exchange Range Separation                   ... NOT USED
Finite Nucleus Model                        ... NOT USED
Auxiliary Coulomb fitting basis             ... AVAILABLE
   # of basis functions in Aux-J            ...    845
   # of shells in Aux-J                     ...    275
   Maximum angular momentum in Aux-J        ...      4
Auxiliary J/K fitting basis                 ... NOT available
Auxiliary Correlation fitting basis         ... NOT available
Auxiliary 'external' fitting basis          ... NOT available
Integral threshold                          ...     1.000000e-10
Primitive cut-off                           ...     1.000000e-11
Primitive pair pre-selection threshold      ...     1.000000e-11

Calculating pre-screening integrals         ... done (  0.0 sec) Dimension = 190
Organizing shell pair data                  ... done (  0.1 sec)
Shell pair information
Total number of shell pairs                 ...     18145
Shell pairs after pre-screening             ...     15634
Total number of primitive shell pairs       ...     60030
Primitive shell pairs kept                  ...     35838
          la=0 lb=0:   4623 shell pairs
          la=1 lb=0:   6404 shell pairs
          la=1 lb=1:   2232 shell pairs
          la=2 lb=0:   1325 shell pairs
          la=2 lb=1:    938 shell pairs
          la=2 lb=2:    112 shell pairs

Calculating one electron integrals          ... done (  0.0 sec)
Calculating RI/J V-Matrix + Cholesky decomp.... done (  0.1 sec)
Calculating Nuclear repulsion               ... done (  0.0 sec) ENN=    882.102432230270 Eh

SHARK setup successfully completed in   0.4 seconds

Maximum memory used throughout the entire GTOINT-calculation: 22.7 MB


           ************************************************************
           *        Program running with 7 parallel MPI-processes     *
           *              working on a common directory               *
           ************************************************************
-------------------------------------------------------------------------------
                                 ORCA SCF
-------------------------------------------------------------------------------

------------
SCF SETTINGS
------------
Hamiltonian:
 Density Functional     Method          .... DFT(GTOs)
 Exchange Functional    Exchange        .... B88
   X-Alpha parameter    XAlpha          ....  0.666667
   Becke's b parameter  XBeta           ....  0.004200
 Correlation Functional Correlation     .... LYP
 LDA part of GGA corr.  LDAOpt          .... VWN-5
 Gradients option       PostSCFGGA      .... off
 Hybrid DFT is turned on
   Fraction HF Exchange ScalHFX         ....  0.200000
   Scaling of DF-GGA-X  ScalDFX         ....  0.720000
   Scaling of DF-GGA-C  ScalDFC         ....  0.810000
   Scaling of DF-LDA-C  ScalLDAC        ....  1.000000
   Perturbative correction              ....  0.000000
   Density functional embedding theory  .... OFF
   NL short-range parameter             ....  4.800000
 RI-approximation to the Coulomb term is turned on
   Number of AuxJ basis functions       .... 845
   RIJ-COSX (HFX calculated with COS-X)).... on


General Settings:
 Integral files         IntName         .... 4HCyclopentadefphenanthrene_spectra
 Hartree-Fock type      HFTyp           .... RHF
 Total Charge           Charge          ....    0
 Multiplicity           Mult            ....    1
 Number of Electrons    NEL             ....  100
 Basis Dimension        Dim             ....  390
 Nuclear Repulsion      ENuc            ....    882.1024322303 Eh

Convergence Acceleration:
 DIIS                   CNVDIIS         .... on
   Start iteration      DIISMaxIt       ....    12
   Startup error        DIISStart       ....  0.200000
   # of expansion vecs  DIISMaxEq       ....     5
   Bias factor          DIISBfac        ....   1.050
   Max. coefficient     DIISMaxC        ....  10.000
 Trust-Rad. Augm. Hess. CNVTRAH         .... auto
   Auto Start mean grad. ratio tolernc. ....  1.125000
   Auto Start start iteration           ....    20
   Auto Start num. interpolation iter.  ....    10
   Max. Number of Micro iterations      ....    16
   Max. Number of Macro iterations      .... Maxiter - #DIIS iter
   Number of Davidson start vectors     ....     2
   Converg. threshold I  (grad. norm)   ....   5.000e-05
   Converg. threshold II (energy diff.) ....   1.000e-06
   Grad. Scal. Fac. for Micro threshold ....   0.100
   Minimum threshold for Micro iter.    ....   0.010
   NR start threshold (gradient norm)   ....   0.001
   Initial trust radius                 ....   0.400
   Minimum AH scaling param. (alpha)    ....   1.000
   Maximum AH scaling param. (alpha)    .... 1000.000
   Orbital update algorithm             .... Taylor
   White noise on init. David. guess    .... on
   Maximum white noise                  ....   0.010
   Quad. conv. algorithm                .... NR
 SOSCF                  CNVSOSCF        .... on
   Start iteration      SOSCFMaxIt      ....   150
   Startup grad/error   SOSCFStart      ....  0.003300
 Level Shifting         CNVShift        .... on
   Level shift para.    LevelShift      ....    0.2500
   Turn off err/grad.   ShiftErr        ....    0.0010
 Zerner damping         CNVZerner       .... off
 Static damping         CNVDamp         .... on
   Fraction old density DampFac         ....    0.7000
   Max. Damping (<1)    DampMax         ....    0.9800
   Min. Damping (>=0)   DampMin         ....    0.0000
   Turn off err/grad.   DampErr         ....    0.1000
 Fernandez-Rico         CNVRico         .... off

SCF Procedure:
 Maximum # iterations   MaxIter         ....   125
 SCF integral mode      SCFMode         .... Direct
   Integral package                     .... SHARK and LIBINT hybrid scheme
 Reset frequency        DirectResetFreq ....    20
 Integral Threshold     Thresh          ....  1.000e-10 Eh
 Primitive CutOff       TCut            ....  1.000e-11 Eh

Convergence Tolerance:
 Convergence Check Mode ConvCheckMode   .... Total+1el-Energy
 Convergence forced     ConvForced      .... 1
 Energy Change          TolE            ....  1.000e-06 Eh
 1-El. energy change                    ....  1.000e-03 Eh
 Orbital Gradient       TolG            ....  5.000e-05
 Orbital Rotation angle TolX            ....  5.000e-05
 DIIS Error             TolErr          ....  1.000e-06


Diagonalization of the overlap matrix:
Smallest eigenvalue                        ... 1.527e-08
Time for diagonalization                   ...    0.013 sec
Threshold for overlap eigenvalues          ... 1.000e-08
Number of eigenvalues below threshold      ... 0
Time for construction of square roots      ...    0.027 sec
Total time needed                          ...    0.041 sec

Time for model grid setup =    0.186 sec

------------------------------
INITIAL GUESS: MODEL POTENTIAL
------------------------------
Loading Hartree-Fock densities                     ... done
Calculating cut-offs                               ... done
Initializing the effective Hamiltonian             ... done
Setting up the integral package (SHARK)            ... done
Starting the Coulomb interaction                   ... done (   0.2 sec)
Reading the grid                                   ... done
Mapping shells                                     ... done
Starting the XC term evaluation                    ... done (   0.2 sec)
  promolecular density results
     # of electrons  =     99.989352183
     EX              =    -80.144106451
     EC              =     -3.368086170
     EX+EC           =    -83.512192621
Transforming the Hamiltonian                       ... done (   0.0 sec)
Diagonalizing the Hamiltonian                      ... done (   0.0 sec)
Back transforming the eigenvectors                 ... done (   0.0 sec)
Now organizing SCF variables                       ... done
                      ------------------
                      INITIAL GUESS DONE (   0.6 sec)
                      ------------------
-------------------
DFT GRID GENERATION
-------------------

General Integration Accuracy     IntAcc      ... 4.388
Radial Grid Type                 RadialGrid  ... OptM3 with GC (2021)
Angular Grid (max. ang.)         AngularGrid ... 4 (Lebedev-302)
Angular grid pruning method      GridPruning ... 4 (adaptive)
Weight generation scheme         WeightScheme... Becke
Basis function cutoff            BFCut       ... 1.0000e-10
Integration weight cutoff        WCut        ... 1.0000e-14
Angular grids for H and He will be reduced by one unit
Partially contracted basis set               ... off
Rotationally invariant grid construction     ... off

Total number of grid points                  ...   124854
Total number of batches                      ...     1963
Average number of points per batch           ...       63
Average number of grid points per atom       ...     4994
Time for grid setup =    0.701 sec

--------------------
COSX GRID GENERATION
--------------------

GRIDX 1
-------
General Integration Accuracy     IntAcc      ... 3.816
Radial Grid Type                 RadialGrid  ... OptM3 with GC (2021)
Angular Grid (max. ang.)         AngularGrid ... 1 (Lebedev-50)
Angular grid pruning method      GridPruning ... 4 (adaptive)
Weight generation scheme         WeightScheme... Becke
Basis function cutoff            BFCut       ... 1.0000e-10
Integration weight cutoff        WCut        ... 1.0000e-14
Angular grids for H and He will be reduced by one unit
Partially contracted basis set               ... on
Rotationally invariant grid construction     ... off

Total number of grid points                  ...    15935
Total number of batches                      ...      265
Average number of points per batch           ...       60
Average number of grid points per atom       ...      637
UseSFitting                                  ... on

GRIDX 2
-------
General Integration Accuracy     IntAcc      ... 4.020
Radial Grid Type                 RadialGrid  ... OptM3 with GC (2021)
Angular Grid (max. ang.)         AngularGrid ... 2 (Lebedev-110)
Angular grid pruning method      GridPruning ... 4 (adaptive)
Weight generation scheme         WeightScheme... Becke
Basis function cutoff            BFCut       ... 1.0000e-10
Integration weight cutoff        WCut        ... 1.0000e-14
Angular grids for H and He will be reduced by one unit
Partially contracted basis set               ... on
Rotationally invariant grid construction     ... off

Total number of grid points                  ...    37819
Total number of batches                      ...      604
Average number of points per batch           ...       62
Average number of grid points per atom       ...     1513
UseSFitting                                  ... on

GRIDX 3
-------
General Integration Accuracy     IntAcc      ... 4.338
Radial Grid Type                 RadialGrid  ... OptM3 with GC (2021)
Angular Grid (max. ang.)         AngularGrid ... 3 (Lebedev-194)
Angular grid pruning method      GridPruning ... 4 (adaptive)
Weight generation scheme         WeightScheme... Becke
Basis function cutoff            BFCut       ... 1.0000e-10
Integration weight cutoff        WCut        ... 1.0000e-14
Angular grids for H and He will be reduced by one unit
Partially contracted basis set               ... on
Rotationally invariant grid construction     ... off

Total number of grid points                  ...    81787
Total number of batches                      ...     1290
Average number of points per batch           ...       63
Average number of grid points per atom       ...     3271
UseSFitting                                  ... on

Time for X-Grid setup             =    0.953 sec

--------------
SCF ITERATIONS
--------------
ITER       Energy         Delta-E        Max-DP      RMS-DP      [F,P]     Damp
               ***  Starting incremental Fock matrix formation  ***
  0   -577.1136304437   0.00000000000068.58356943  0.51418077  0.1557278 0.7000
  1   -577.2418285829  -0.12819813920224.80447878  0.22927154  0.0881341 0.7000
                               ***Turning on DIIS***
  2   -577.3012268463  -0.059398263353112.18441968  0.81104483  0.0405161 0.0000
  3   -577.3855864869  -0.08435964062022.67702603  0.27837699  0.0419825 0.0000
  4   -577.4070729306  -0.02148644368442.35677602  0.39095750  0.0068919 0.0000
                      *** Initiating the SOSCF procedure ***
                           *** Shutting down DIIS ***
                      *** Re-Reading the Fockian *** 
                      *** Removing any level shift *** 
ITER      Energy       Delta-E        Grad      Rot      Max-DP    RMS-DP
  5   -577.40788226  -0.0008093268  0.000685  0.000685 393.772967  4.428507
               *** Restarting incremental Fock matrix formation ***
  6   -577.40799803  -0.0001157699  0.003467  0.019656 6561.161713 77.147122
  7   -577.40707663   0.0009213929  0.015723  0.019099 6889.370495 80.018161
  8   -577.40795985  -0.0008832174  0.002122  0.006807 1854.456243 20.864494
  9   -577.40782246   0.0001373910  0.008293  0.007336 1642.119701 18.937851
 10   -577.40796709  -0.0001446294  0.005413  0.039086 21839.052654 250.925930
 11   -577.40604264   0.0019244480  0.044662  0.045251 18037.864211 206.277141
 12   -577.40743641  -0.0013937669  0.009994  0.052997 62842.909989 731.814587
 13   -577.39987083   0.0075655747  0.072858  0.052841 61449.335898 716.043029
 14   -577.40738966  -0.0075188232  0.013654  0.166046 372078.461819 4321.855157
 15   -577.37594506   0.0314446018  0.149684  0.176074 104508.572338 1210.970016
 16   -577.38401721  -0.0080721577  0.033162  0.112173 384056.273344 4641.737660
 17   -577.32296515   0.0610520675  0.144420  0.113330 174152.108826 2090.583886
 18   -577.34658495  -0.0236198010  0.028168  0.207577 250016.004978 2618.825083
 19   -577.30950550   0.0370794514  0.085933  0.159625 717446.066764 8188.972756

 WARNING: the maximum gradient error descreased on average only by a factor   1.0
          during the last 20 iterations

                      *** Initiating the TRAH-SCF procedure ***

              ***Rediagonalizing the Fockian in SOSCF/NRSCF***

TRAH GRIDX
----------

General Integration Accuracy     IntAcc      ... 3.067
Radial Grid Type                 RadialGrid  ... OptM3 with GC (2021)
Angular Grid (max. ang.)         AngularGrid ... 1 (Lebedev-50)
Angular grid pruning method      GridPruning ... 4 (adaptive)
Weight generation scheme         WeightScheme... Becke
Basis function cutoff            BFCut       ... 1.0000e-10
Integration weight cutoff        WCut        ... 1.0000e-14
Angular grids for H and He will be reduced by one unit
Partially contracted basis set               ... on
Rotationally invariant grid construction     ... off

Total number of grid points                  ...     8455
Total number of batches                      ...      145
Average number of points per batch           ...       58
Average number of grid points per atom       ...      338


TRAH GRID
---------

General Integration Accuracy     IntAcc      ... 3.467
Radial Grid Type                 RadialGrid  ... OptM3 with GC (2021)
Angular Grid (max. ang.)         AngularGrid ... 1 (Lebedev-50)
Angular grid pruning method      GridPruning ... 4 (adaptive)
Weight generation scheme         WeightScheme... Becke
Basis function cutoff            BFCut       ... 1.0000e-10
Integration weight cutoff        WCut        ... 1.0000e-14
Angular grids for H and He will be reduced by one unit
Partially contracted basis set               ... off
Rotationally invariant grid construction     ... off

Total number of grid points                  ...    18701
Total number of batches                      ...      303
Average number of points per batch           ...       61
Average number of grid points per atom       ...      748

 --------------------------------------------------------------------------------------------
   Iter.        energy            ||Error||_2        Shift      TRadius  Mac/Mic        Rej.
 --------------------------------------------------------------------------------------------
    0       -577.406390685649     1.332861e-01                     0.400 (TRAH MAcro)   No
    0     dE    -1.036251e-03     1.729900e-01    -2.0720e-03      0.016 (TRAH MIcro)
    0     dE    -1.628602e-03     2.125369e-02    -3.2544e-03      0.029 (TRAH MIcro)
    0     dE    -1.655544e-03     1.028816e-02    -3.3081e-03      0.030 (TRAH MIcro)
    0     dE    -1.658788e-03     2.634553e-03    -3.3146e-03      0.030 (TRAH MIcro)
    1       -577.408023473231     4.625099e-03                     0.480 (TRAH MAcro)   No
    1     dE    -5.848904e-07     8.836999e-03    -1.1698e-06      0.000 (TRAH MIcro)
    1     dE    -2.211224e-06     1.734734e-03    -4.4224e-06      0.001 (TRAH MIcro)
    1     dE    -2.437263e-06     7.320556e-04    -4.8745e-06      0.001 (TRAH MIcro)
    1     dE    -2.457826e-06     3.146440e-04    -4.9156e-06      0.001 (TRAH MIcro)
    2       -577.408024912474     2.477473e-03                     0.480 (TRAH MAcro)   No
    2     dE    -6.808533e-07     4.096527e-03    -1.3617e-06      0.001 (TRAH MIcro)
    2     dE    -9.603100e-07     4.891352e-04    -1.9206e-06      0.001 (TRAH MIcro)
    2     dE    -9.658221e-07     2.886838e-04    -1.9316e-06      0.001 (TRAH MIcro)
    2     dE    -9.670990e-07     7.161623e-05    -1.9342e-06      0.001 (TRAH MIcro)
    3       -577.408024925647     1.796649e-03                     0.336 (TRAH MAcro)   No
    3     dE    -4.098769e-07     1.565606e-03    -8.1975e-07      0.000 (TRAH MIcro)
    3     dE    -5.187269e-07     1.541760e-04    -1.0375e-06      0.001 (TRAH MIcro)
    4       -577.408025256349     1.328649e-03                     0.336 (TRAH MAcro)   No
    4     dE    -2.015458e-07     2.157297e-03    -4.0309e-07      0.000 (TRAH MIcro)
    4     dE    -2.780867e-07     2.653024e-04    -5.5617e-07      0.000 (TRAH MIcro)
    4     dE    -2.794169e-07     1.601802e-04    -5.5883e-07      0.000 (TRAH MIcro)
    4     dE    -2.798099e-07     4.054702e-05    -5.5962e-07      0.000 (TRAH MIcro)
 ---------------------------------
          TRAH Step control 
 ---------------------------------
  predicted energy change = -0.000000
  actual energy  change   = 0.000000
  energy change ratio     = -0.210297
  old trust radius        = 0.336000
  new trust radius        = 0.235200
  reject step?            =  1
    5       -577.408025256349     1.796649e-03                     0.235 (TRAH MAcro)  Yes
    6       -577.408025256325     1.328648e-03                     0.235 (TRAH MAcro)   No
    6     dE    -2.015589e-07     2.156171e-03    -4.0312e-07      0.000 (TRAH MIcro)
    6     dE    -2.780921e-07     2.651036e-04    -5.5618e-07      0.000 (TRAH MIcro)
    6     dE    -2.794172e-07     1.596630e-04    -5.5883e-07      0.000 (TRAH MIcro)
    6     dE    -2.798079e-07     4.056967e-05    -5.5962e-07      0.000 (TRAH MIcro)
 ---------------------------------
          TRAH Step control 
 ---------------------------------
  predicted energy change = -0.000000
  actual energy  change   = 0.000000
  energy change ratio     = -0.210151
  old trust radius        = 0.235200
  new trust radius        = 0.164640
  reject step?            =  1
    7       -577.408025256325     1.796649e-03                     0.165 (TRAH MAcro)  Yes
    8       -577.408025256332     1.328648e-03                     0.165 (TRAH MAcro)   No
    8     dE    -2.015459e-07     2.157005e-03    -4.0309e-07      0.000 (TRAH MIcro)
    8     dE    -2.780824e-07     2.653918e-04    -5.5616e-07      0.000 (TRAH MIcro)
    8     dE    -2.794150e-07     1.602531e-04    -5.5883e-07      0.000 (TRAH MIcro)
    8     dE    -2.798086e-07     4.050260e-05    -5.5962e-07      0.000 (TRAH MIcro)
 ---------------------------------
          TRAH Step control 
 ---------------------------------
  predicted energy change = -0.000000
  actual energy  change   = 0.000000
  energy change ratio     = -0.210213
  old trust radius        = 0.164640
  new trust radius        = 0.115248
  reject step?            =  1
    9       -577.408025256332     1.796649e-03                     0.115 (TRAH MAcro)  Yes
   10       -577.408025256345     1.328644e-03                     0.115 (TRAH MAcro)   No
   10     dE    -2.015439e-07     2.157162e-03    -4.0309e-07      0.000 (TRAH MIcro)
   10     dE    -2.780815e-07     2.653160e-04    -5.5616e-07      0.000 (TRAH MIcro)
   10     dE    -2.794132e-07     1.602592e-04    -5.5883e-07      0.000 (TRAH MIcro)
   10     dE    -2.798066e-07     4.051229e-05    -5.5961e-07      0.000 (TRAH MIcro)
 ---------------------------------
          TRAH Step control 
 ---------------------------------
  predicted energy change = -0.000000
  actual energy  change   = 0.000000
  energy change ratio     = -0.210262
  old trust radius        = 0.115248
  new trust radius        = 0.080674
  reject step?            =  1
   11       -577.408025256345     1.796649e-03                     0.081 (TRAH MAcro)  Yes
   12       -577.408025256339     1.328646e-03                     0.081 (TRAH MAcro)   No
   12     dE    -2.015462e-07     2.157052e-03    -4.0309e-07      0.000 (TRAH MIcro)
   12     dE    -2.780868e-07     2.652436e-04    -5.5617e-07      0.000 (TRAH MIcro)
   12     dE    -2.794153e-07     1.600660e-04    -5.5883e-07      0.000 (TRAH MIcro)
   12     dE    -2.798075e-07     4.060347e-05    -5.5961e-07      0.000 (TRAH MIcro)
 ---------------------------------
          TRAH Step control 
 ---------------------------------
  predicted energy change = -0.000000
  actual energy  change   = 0.000000
  energy change ratio     = -0.210204
  old trust radius        = 0.080674
  new trust radius        = 0.056472
  reject step?            =  1
   13       -577.408025256339     1.796649e-03                     0.056 (TRAH MAcro)  Yes
   14       -577.408025256344     1.328647e-03                     0.056 (TRAH MAcro)   No
   14     dE    -2.015456e-07     2.157153e-03    -4.0309e-07      0.000 (TRAH MIcro)
   14     dE    -2.780881e-07     2.652312e-04    -5.5618e-07      0.000 (TRAH MIcro)
   14     dE    -2.794164e-07     1.600072e-04    -5.5883e-07      0.000 (TRAH MIcro)
   14     dE    -2.798086e-07     4.051086e-05    -5.5962e-07      0.000 (TRAH MIcro)
 ---------------------------------
          TRAH Step control 
 ---------------------------------
  predicted energy change = -0.000000
  actual energy  change   = 0.000000
  energy change ratio     = -0.210313
  old trust radius        = 0.056472
  new trust radius        = 0.039530
  reject step?            =  1
   15       -577.408025256344     1.796649e-03                     0.040 (TRAH MAcro)  Yes
   16       -577.408025256357     1.328645e-03                     0.040 (TRAH MAcro)   No
   16     dE    -2.015508e-07     2.157353e-03    -4.0310e-07      0.000 (TRAH MIcro)
   16     dE    -2.780901e-07     2.651288e-04    -5.5618e-07      0.000 (TRAH MIcro)
   16     dE    -2.794152e-07     1.598057e-04    -5.5883e-07      0.000 (TRAH MIcro)
   16     dE    -2.798065e-07     4.053653e-05    -5.5961e-07      0.000 (TRAH MIcro)
 ---------------------------------
          TRAH Step control 
 ---------------------------------
  predicted energy change = -0.000000
  actual energy  change   = 0.000000
  energy change ratio     = -0.210302
  old trust radius        = 0.039530
  new trust radius        = 0.027671
  reject step?            =  1
   17       -577.408025256357     1.796649e-03                     0.028 (TRAH MAcro)  Yes
   18       -577.408025256337     1.328647e-03                     0.028 (TRAH MAcro)   No
   18     dE    -2.015446e-07     2.157295e-03    -4.0309e-07      0.000 (TRAH MIcro)
   18     dE    -2.780849e-07     2.652546e-04    -5.5617e-07      0.000 (TRAH MIcro)
   18     dE    -2.794153e-07     1.601920e-04    -5.5883e-07      0.000 (TRAH MIcro)
   18     dE    -2.798084e-07     4.052881e-05    -5.5962e-07      0.000 (TRAH MIcro)
 ---------------------------------
          TRAH Step control 
 ---------------------------------
  predicted energy change = -0.000000
  actual energy  change   = 0.000000
  energy change ratio     = -0.210244
  old trust radius        = 0.027671
  new trust radius        = 0.019370
  reject step?            =  1
   19       -577.408025256337     1.796649e-03                     0.019 (TRAH MAcro)  Yes
   20       -577.408025256338     1.328647e-03                     0.019 (TRAH MAcro)   No
   20     dE    -2.015539e-07     2.156691e-03    -4.0311e-07      0.000 (TRAH MIcro)
   20     dE    -2.780902e-07     2.652163e-04    -5.5618e-07      0.000 (TRAH MIcro)
   20     dE    -2.794166e-07     1.597924e-04    -5.5883e-07      0.000 (TRAH MIcro)
   20     dE    -2.798078e-07     4.061205e-05    -5.5962e-07      0.000 (TRAH MIcro)
 ---------------------------------
          TRAH Step control 
 ---------------------------------
  predicted energy change = -0.000000
  actual energy  change   = 0.000000
  energy change ratio     = -0.210238
  old trust radius        = 0.019370
  new trust radius        = 0.013559
  reject step?            =  1
   21       -577.408025256338     1.796649e-03                     0.014 (TRAH MAcro)  Yes
   22       -577.408025256346     1.328647e-03                     0.014 (TRAH MAcro)   No
   22     dE    -2.015553e-07     2.156541e-03    -4.0311e-07      0.000 (TRAH MIcro)
   22     dE    -2.780920e-07     2.651727e-04    -5.5618e-07      0.000 (TRAH MIcro)
   22     dE    -2.794175e-07     1.597644e-04    -5.5883e-07      0.000 (TRAH MIcro)
   22     dE    -2.798088e-07     4.056280e-05    -5.5962e-07      0.000 (TRAH MIcro)
 ---------------------------------
          TRAH Step control 
 ---------------------------------
  predicted energy change = -0.000000
  actual energy  change   = 0.000000
  energy change ratio     = -0.210325
  old trust radius        = 0.013559
  new trust radius        = 0.009491
  reject step?            =  1
   23       -577.408025256346     1.796649e-03                     0.009 (TRAH MAcro)  Yes
   24       -577.408025256353     1.328646e-03                     0.009 (TRAH MAcro)   No
   24     dE    -2.015511e-07     2.156499e-03    -4.0310e-07      0.000 (TRAH MIcro)
   24     dE    -2.780896e-07     2.651353e-04    -5.5618e-07      0.000 (TRAH MIcro)
   24     dE    -2.794164e-07     1.597874e-04    -5.5883e-07      0.000 (TRAH MIcro)
   24     dE    -2.798078e-07     4.056325e-05    -5.5962e-07      0.000 (TRAH MIcro)
 ---------------------------------
          TRAH Step control 
 ---------------------------------
  predicted energy change = -0.000000
  actual energy  change   = 0.000000
  energy change ratio     = -0.210284
  old trust radius        = 0.009491
  new trust radius        = 0.006644
  reject step?            =  1
   25       -577.408025256353     1.796649e-03                     0.007 (TRAH MAcro)  Yes
   26       -577.408025256346     1.328643e-03                     0.007 (TRAH MAcro)   No
   26     dE    -2.015434e-07     2.157247e-03    -4.0309e-07      0.000 (TRAH MIcro)
   26     dE    -2.780816e-07     2.653035e-04    -5.5616e-07      0.000 (TRAH MIcro)
   26     dE    -2.794127e-07     1.602586e-04    -5.5883e-07      0.000 (TRAH MIcro)
   26     dE    -2.798061e-07     4.050256e-05    -5.5961e-07      0.000 (TRAH MIcro)
 ---------------------------------
          TRAH Step control 
 ---------------------------------
  predicted energy change = -0.000000
  actual energy  change   = 0.000000
  energy change ratio     = -0.210256
  old trust radius        = 0.006644
  new trust radius        = 0.004651
  reject step?            =  1
   27       -577.408025256346     1.796649e-03                     0.005 (TRAH MAcro)  Yes
   28       -577.408025256338     1.328647e-03                     0.005 (TRAH MAcro)   No
   28     dE    -2.015448e-07     2.157263e-03    -4.0309e-07      0.000 (TRAH MIcro)
   28     dE    -2.780862e-07     2.652513e-04    -5.5617e-07      0.000 (TRAH MIcro)
   28     dE    -2.794153e-07     1.601123e-04    -5.5883e-07      0.000 (TRAH MIcro)
   28     dE    -2.798079e-07     4.056993e-05    -5.5962e-07      0.000 (TRAH MIcro)
 ---------------------------------
          TRAH Step control 
 ---------------------------------
  predicted energy change = -0.000000
  actual energy  change   = 0.000000
  energy change ratio     = -0.210246
  old trust radius        = 0.004651
  new trust radius        = 0.003255
  reject step?            =  1
   29       -577.408025256338     1.796649e-03                     0.003 (TRAH MAcro)  Yes
   30       -577.408025256350     1.328648e-03                     0.003 (TRAH MAcro)   No
   30     dE    -2.015489e-07     2.156757e-03    -4.0310e-07      0.000 (TRAH MIcro)
   30     dE    -2.780790e-07     2.654824e-04    -5.5616e-07      0.000 (TRAH MIcro)
   30     dE    -2.794142e-07     1.604077e-04    -5.5883e-07      0.000 (TRAH MIcro)
   30     dE    -2.798083e-07     4.054160e-05    -5.5962e-07      0.000 (TRAH MIcro)
 ---------------------------------
          TRAH Step control 
 ---------------------------------
  predicted energy change = -0.000000
  actual energy  change   = 0.000000
  energy change ratio     = -0.210318
  old trust radius        = 0.003255
  new trust radius        = 0.002279
  reject step?            =  1
   31       -577.408025256350     1.796649e-03                     0.002 (TRAH MAcro)  Yes
   32       -577.408025256357     1.328643e-03                     0.002 (TRAH MAcro)   No
   32     dE    -2.015491e-07     2.156525e-03    -4.0310e-07      0.000 (TRAH MIcro)
   32     dE    -2.780764e-07     2.653566e-04    -5.5615e-07      0.000 (TRAH MIcro)
   32     dE    -2.794121e-07     1.604678e-04    -5.5882e-07      0.000 (TRAH MIcro)
   32     dE    -2.798068e-07     4.050100e-05    -5.5961e-07      0.000 (TRAH MIcro)
 ---------------------------------
          TRAH Step control 
 ---------------------------------
  predicted energy change = -0.000000
  actual energy  change   = 0.000000
  energy change ratio     = -0.210226
  old trust radius        = 0.002279
  new trust radius        = 0.001595
  reject step?            =  1
   33       -577.408025256357     1.796649e-03                     0.002 (TRAH MAcro)  Yes
   34       -577.408025256348     1.328644e-03                     0.002 (TRAH MAcro)   No
   34     dE    -2.015562e-07     2.156454e-03    -4.0311e-07      0.000 (TRAH MIcro)
   34     dE    -2.780766e-07     2.652581e-04    -5.5615e-07      0.000 (TRAH MIcro)
   34     dE    -2.794122e-07     1.606225e-04    -5.5882e-07      0.000 (TRAH MIcro)
   34     dE    -2.798075e-07     4.045726e-05    -5.5961e-07      0.000 (TRAH MIcro)
 ---------------------------------
          TRAH Step control 
 ---------------------------------
  predicted energy change = -0.000000
  actual energy  change   = 0.000000
  energy change ratio     = -0.210285
  old trust radius        = 0.001595
  new trust radius        = 0.001117
  reject step?            =  1
   35       -577.408025256348     1.796649e-03                     0.001 (TRAH MAcro)  Yes
   36       -577.408025256354     1.328646e-03                     0.001 (TRAH MAcro)   No
   36     dE    -2.015473e-07     2.157217e-03    -4.0309e-07      0.000 (TRAH MIcro)
   36     dE    -2.780797e-07     2.653781e-04    -5.5616e-07      0.000 (TRAH MIcro)
   36     dE    -2.794142e-07     1.604900e-04    -5.5883e-07      0.000 (TRAH MIcro)
   36     dE    -2.798084e-07     4.047218e-05    -5.5962e-07      0.000 (TRAH MIcro)
 ---------------------------------
          TRAH Step control 
 ---------------------------------
  predicted energy change = -0.000000
  actual energy  change   = 0.000000
  energy change ratio     = -0.210238
  old trust radius        = 0.001117
  new trust radius        = 0.000782
  reject step?            =  1
   37       -577.408025256354     1.796649e-03                     0.001 (TRAH MAcro)  Yes
   38       -577.408025256336     1.328647e-03                     0.001 (TRAH MAcro)   No
   38     dE    -2.015445e-07     2.157288e-03    -4.0309e-07      0.000 (TRAH MIcro)
   38     dE    -2.780850e-07     2.653141e-04    -5.5617e-07      0.000 (TRAH MIcro)
   38     dE    -2.794151e-07     1.601292e-04    -5.5883e-07      0.000 (TRAH MIcro)
   38     dE    -2.798079e-07     4.052440e-05    -5.5962e-07      0.000 (TRAH MIcro)
 ---------------------------------
          TRAH Step control 
 ---------------------------------
  predicted energy change = -0.000000
  actual energy  change   = 0.000000
  energy change ratio     = -0.210207
  old trust radius        = 0.000782
  new trust radius        = 0.000547
  reject step?            =  1
   39       -577.408025256336     1.796649e-03                     0.001 (TRAH MAcro)  Yes
   40       -577.408025256338     1.328648e-03                     0.001 (TRAH MAcro)   No
   40     dE    -2.015454e-07     2.157216e-03    -4.0309e-07      0.000 (TRAH MIcro)
   40     dE    -2.780875e-07     2.652506e-04    -5.5617e-07      0.000 (TRAH MIcro)
   40     dE    -2.794163e-07     1.600975e-04    -5.5883e-07      0.000 (TRAH MIcro)
   40     dE    -2.798089e-07     4.049141e-05    -5.5962e-07      0.000 (TRAH MIcro)
 ---------------------------------
          TRAH Step control 
 ---------------------------------
  predicted energy change = -0.000000
  actual energy  change   = 0.000000
  energy change ratio     = -0.210251
  old trust radius        = 0.000547
  new trust radius        = 0.000383
  reject step?            =  1
   41       -577.408025256338     1.796649e-03                     0.000 (TRAH MAcro)  Yes
   42       -577.408025256371     1.328645e-03                     0.000 (TRAH MAcro)   No
   42     dE    -2.015470e-07     2.157533e-03    -4.0309e-07      0.000 (TRAH MIcro)
   42     dE    -2.725087e-07     2.207229e-04    -4.4949e-01      0.000 (TRAH MIcro)
   42     dE    -2.734892e-07     1.138265e-04    -4.6413e-01      0.000 (TRAH MIcro)
   43       -577.408025270145     6.611599e-04                           (NR   MAcro)
   43     dE    -6.360044e-08     1.618838e-04                           (NR   MIcro)
   43     dE    -6.466800e-08     9.592082e-05                           (NR   MIcro)
   43     dE    -6.514342e-08     1.761082e-05                           (NR   MIcro)
   43     dE    -6.515414e-08     8.224870e-06                           (NR   MIcro)
   43     dE    -6.515742e-08     1.454772e-06                           (NR   MIcro)
   44       -577.408025352993     4.666184e-04                           (NR   MAcro)
   44     dE    -3.441420e-08     1.079281e-04                           (NR   MIcro)
   44     dE    -3.502476e-08     1.677230e-05                           (NR   MIcro)
   44     dE    -3.503362e-08     8.926641e-06                           (NR   MIcro)
   44     dE    -3.503749e-08     1.328674e-06                           (NR   MIcro)
   45       -577.408025314176     3.433924e-04                           (NR   MAcro)
   45     dE    -1.864198e-08     7.940271e-05                           (NR   MIcro)
   45     dE    -1.897320e-08     1.180194e-05                           (NR   MIcro)
   45     dE    -1.897789e-08     5.144262e-06                           (NR   MIcro)
   45     dE    -1.897922e-08     1.050554e-06                           (NR   MIcro)
   46       -577.408025355261     2.527680e-04                           (NR   MAcro)
   46     dE    -1.010032e-08     5.845818e-05                           (NR   MIcro)
   46     dE    -1.027860e-08     9.867451e-06                           (NR   MIcro)
   46     dE    -1.028193e-08     5.212417e-06                           (NR   MIcro)
   46     dE    -1.028317e-08     1.060931e-06                           (NR   MIcro)
   47       -577.408025332078     1.860315e-04                           (NR   MAcro)
   47     dE    -5.471021e-09     4.303269e-05                           (NR   MIcro)
   47     dE    -5.567685e-09     7.244141e-06                           (NR   MIcro)
   47     dE    -5.569469e-09     3.463351e-06                           (NR   MIcro)
   48       -577.408025352689     1.369601e-04                           (NR   MAcro)
   48     dE    -2.962889e-09     3.171206e-05                           (NR   MIcro)
   48     dE    -3.010773e-09     1.008201e-05                           (NR   MIcro)
   48     dE    -3.015709e-09     3.073315e-06                           (NR   MIcro)
   49       -577.408025339334     1.007514e-04                           (NR   MAcro)
   49     dE    -1.603242e-09     2.320387e-05                           (NR   MIcro)
   49     dE    -1.630168e-09     5.275043e-06                           (NR   MIcro)
   49     dE    -1.631385e-09     2.188553e-06                           (NR   MIcro)
   50       -577.408025350071     7.409361e-05                           (NR   MAcro)
   50     dE    -8.671899e-10     1.708126e-05                           (NR   MIcro)
   50     dE    -8.815654e-10     4.403126e-06                           (NR   MIcro)
   51       -577.408025342776     5.465779e-05                           (NR   MAcro)
   51     dE    -4.614101e-10     1.548658e-05                           (NR   MIcro)
   51     dE    -4.722084e-10     8.893241e-06                           (NR   MIcro)
   51     dE    -4.761016e-10     1.477250e-06                           (NR   MIcro)
   52       -577.408025348300     4.000129e-05                           (NR   MAcro)

               *****************************************************
               *                     SUCCESS                       *
               *           SCF CONVERGED AFTER 178 CYCLES          *
               *****************************************************


------------------------------------------------------------------------------
                          SCF STABILITY ANALYSIS                              
------------------------------------------------------------------------------


---------------
TD-DFT XC SETUP
---------------

DFT calculation                         ... on
Name of the grid file                   ... 4HCyclopentadefphenanthrene_spectra.grid.tmp
Exchange functional (SCF)               ... B88
Exchange functional (TD-DFT)            ... B88
   X-Alpha parameter    XAlpha (SCF)    ...  0.666667
   X-Alpha parameter    XAlpha (TD-DFT) ...  0.666667
   Becke's b parameter  XBeta (SCF)     ...  0.004200
   Becke's b parameter  XBeta (TD-DFT)  ...  0.004200
Correlation functional (SCF)            ... LYP
Correlation functional (TD-DFT)         ... LYP
 LDA part of GGA corr.  LDAOpt (SCF)    ... VWN-5
 LDA part of GGA corr.  LDAOpt (TD-DFT) ... VWN-5
Hybrid DFT                              ... on
   Exchange mixing (SCF)                ...  0.200
   Exchange mixing (TD-DFT)             ...  0.200
   GGA exch. scaling(SCF)               ...  0.720
   GGA exch. scaling (TD-DFT)           ...  0.720
   GGA corr. scaling (SCF)              ...  0.810
   GGA corr. scaling (TD-DFT)           ...  0.810

Electron density on the grid   ... found on disk
Building xc-kernel on the grid ... done
                    *** TD-DFT CALCULATION INITIALIZED ***

                       ****Iteration    0****

   Memory handling for direct AO based CIS:
   Memory per vector needed      ...     4 MB
   Memory needed                 ...    27 MB
   Memory available              ...  5000 MB
   Number of vectors per batch   ...  1101
   Number of batches             ...     1
   Time for densities:     0.015
   Time for XC-Integration:     3.364
   Time for K (COSX):    30.260
   Time for Sigma-Completion:     0.061
   Lowest Energy          :     0.102335151392
   Maximum Energy change  :     0.131546897023 (vector 2)
   Maximum residual norm  :     0.007354238907

                       ****Iteration    1****
   Time for densities:     0.013
   Time for XC-Integration:     2.282
   Time for K (COSX):    29.018
   Time for Sigma-Completion:     0.024
   Lowest Energy          :     0.067674960058
   Maximum Energy change  :     0.034660191334 (vector 0)
   Maximum residual norm  :     0.000749105442

                       ****Iteration    2****
   Time for densities:     0.014
   Time for XC-Integration:     2.232
   Time for K (COSX):    28.895
   Time for Sigma-Completion:     0.020
   Lowest Energy          :     0.066840623685
   Maximum Energy change  :     0.011638821187 (vector 1)
   Maximum residual norm  :     0.000694316252

                       ****Iteration    3****
   Time for densities:     0.012
   Time for XC-Integration:     2.328
   Time for K (COSX):    28.874
   Time for Sigma-Completion:     0.052
   Lowest Energy          :     0.066801008517
   Maximum Energy change  :     0.001511652334 (vector 1)
   Maximum residual norm  :     0.000052840046

                       ****Iteration    4****
   Time for densities:     0.016
   Time for XC-Integration:     2.368
   Time for K (COSX):    28.957
   Time for Sigma-Completion:     0.021
   Lowest Energy          :     0.066799025026
   Maximum Energy change  :     0.000098038028 (vector 1)
   Maximum residual norm  :     0.000003061299

      *** CONVERGENCE OF RESIDUAL NORM REACHED ***

----------------------------- 
SCF STABILITY ANALYSIS RESULT 
----------------------------- 

RHF/RKS->UHF/UKS - triplet - external

   Root    Eigenvalue (au) 
     0       0.066799 
     1       0.099152 
     2       0.110579 

Stability Analysis indicates a stable HF/KS wave function.


Total time for performing the stability analysis:   159.406sec

Old exchange energy                            =    -16.287430776 Eh
New exchange energy                            =    -16.287436437 Eh
Exchange energy change after final integration =     -0.000005661 Eh
Total energy after final integration           =   -577.408031010 Eh
Final COS-X integration done in                =     9.575 sec

----------------
TOTAL SCF ENERGY
----------------

Total Energy       :         -577.40803101 Eh          -15712.07131 eV

Components:
Nuclear Repulsion  :          882.10243223 Eh           24003.22748 eV
Electronic Energy  :        -1459.51046324 Eh          -39715.29879 eV
One Electron Energy:        -2529.17254638 Eh          -68822.28384 eV
Two Electron Energy:         1069.66208314 Eh           29106.98505 eV
Max COSX asymmetry :            0.00014863 Eh               0.00404 eV

Virial components:
Potential Energy   :        -1152.56161054 Eh          -31362.79588 eV
Kinetic Energy     :          575.15357953 Eh           15650.72457 eV
Virial Ratio       :            2.00391974


DFT components:
N(Alpha)           :       50.000016901633 electrons
N(Beta)            :       50.000016901633 electrons
N(Total)           :      100.000033803266 electrons
E(X)               :      -64.686139986712 Eh       
E(C)               :       -3.974416702846 Eh       
E(XC)              :      -68.660556689558 Eh       
DFET-embed. en.    :        0.000000000000 Eh       

---------------
SCF CONVERGENCE
---------------

  Last Energy change         ...   -5.5237e-09  Tolerance :   1.0000e-06
  Last Orbital Gradient      ...    4.0001e-05  Tolerance :   5.0000e-05
  Last Orbital Rotation      ...    1.8680e-05

             **** THE GBW FILE WAS UPDATED (4HCyclopentadefphenanthrene_spectra.gbw) ****
             **** DENSITY 4HCyclopentadefphenanthrene_spectra.scfp WAS UPDATED ****
             **** ENERGY FILE WAS UPDATED (4HCyclopentadefphenanthrene_spectra.en.tmp) ****
             **** THE GBW FILE WAS UPDATED (4HCyclopentadefphenanthrene_spectra.gbw) ****
             **** DENSITY 4HCyclopentadefphenanthrene_spectra.scfp WAS UPDATED ****
----------------
ORBITAL ENERGIES
----------------

  NO   OCC          E(Eh)            E(eV) 
   0   2.0000     -10.190819      -277.3063 
   1   2.0000     -10.184400      -277.1316 
   2   2.0000     -10.184393      -277.1314 
   3   2.0000     -10.183245      -277.1002 
   4   2.0000     -10.183237      -277.1000 
   5   2.0000     -10.181529      -277.0535 
   6   2.0000     -10.180906      -277.0365 
   7   2.0000     -10.178154      -276.9617 
   8   2.0000     -10.178152      -276.9616 
   9   2.0000     -10.177076      -276.9323 
  10   2.0000     -10.177073      -276.9322 
  11   2.0000     -10.176314      -276.9116 
  12   2.0000     -10.176313      -276.9115 
  13   2.0000     -10.168602      -276.7017 
  14   2.0000     -10.168106      -276.6882 
  15   2.0000      -0.903981       -24.5986 
  16   2.0000      -0.850037       -23.1307 
  17   2.0000      -0.827270       -22.5112 
  18   2.0000      -0.796042       -21.6614 
  19   2.0000      -0.758543       -20.6410 
  20   2.0000      -0.732369       -19.9288 
  21   2.0000      -0.718300       -19.5459 
  22   2.0000      -0.695658       -18.9298 
  23   2.0000      -0.627182       -17.0665 
  24   2.0000      -0.625299       -17.0152 
  25   2.0000      -0.598831       -16.2950 
  26   2.0000      -0.579925       -15.7806 
  27   2.0000      -0.533518       -14.5178 
  28   2.0000      -0.519565       -14.1381 
  29   2.0000      -0.492950       -13.4138 
  30   2.0000      -0.477778       -13.0010 
  31   2.0000      -0.471928       -12.8418 
  32   2.0000      -0.452285       -12.3073 
  33   2.0000      -0.437635       -11.9087 
  34   2.0000      -0.427533       -11.6338 
  35   2.0000      -0.419667       -11.4197 
  36   2.0000      -0.417330       -11.3561 
  37   2.0000      -0.399573       -10.8729 
  38   2.0000      -0.398894       -10.8545 
  39   2.0000      -0.391918       -10.6646 
  40   2.0000      -0.361806        -9.8453 
  41   2.0000      -0.359442        -9.7809 
  42   2.0000      -0.351098        -9.5539 
  43   2.0000      -0.335138        -9.1196 
  44   2.0000      -0.328486        -8.9386 
  45   2.0000      -0.310778        -8.4567 
  46   2.0000      -0.283262        -7.7080 
  47   2.0000      -0.269937        -7.3454 
  48   2.0000      -0.223903        -6.0927 
  49   2.0000      -0.217623        -5.9218 
  50   0.0000      -0.048195        -1.3115 
  51   0.0000      -0.033431        -0.9097 
  52   0.0000      -0.013915        -0.3786 
  53   0.0000       0.005246         0.1428 
  54   0.0000       0.011312         0.3078 
  55   0.0000       0.014399         0.3918 
  56   0.0000       0.021201         0.5769 
  57   0.0000       0.026400         0.7184 
  58   0.0000       0.028384         0.7724 
  59   0.0000       0.040801         1.1102 
  60   0.0000       0.042740         1.1630 
  61   0.0000       0.048651         1.3238 
  62   0.0000       0.049077         1.3354 
  63   0.0000       0.055668         1.5148 
  64   0.0000       0.070792         1.9263 
  65   0.0000       0.071380         1.9424 
  66   0.0000       0.074671         2.0319 
  67   0.0000       0.075192         2.0461 
  68   0.0000       0.078330         2.1315 
  69   0.0000       0.085311         2.3214 
  70   0.0000       0.093775         2.5518 
  71   0.0000       0.105894         2.8815 
  72   0.0000       0.107129         2.9151 
  73   0.0000       0.108733         2.9588 
  74   0.0000       0.114892         3.1264 
  75   0.0000       0.121774         3.3136 
  76   0.0000       0.131767         3.5856 
  77   0.0000       0.135442         3.6856 
  78   0.0000       0.137648         3.7456 
  79   0.0000       0.138389         3.7658 
  80   0.0000       0.141828         3.8593 
  81   0.0000       0.146041         3.9740 
  82   0.0000       0.150271         4.0891 
  83   0.0000       0.159306         4.3349 
  84   0.0000       0.160301         4.3620 
  85   0.0000       0.168401         4.5824 
  86   0.0000       0.170899         4.6504 
  87   0.0000       0.177191         4.8216 
  88   0.0000       0.177295         4.8244 
  89   0.0000       0.178070         4.8455 
  90   0.0000       0.178118         4.8468 
  91   0.0000       0.182293         4.9605 
  92   0.0000       0.184009         5.0071 
  93   0.0000       0.190464         5.1828 
  94   0.0000       0.192697         5.2435 
  95   0.0000       0.194998         5.3062 
  96   0.0000       0.197308         5.3690 
  97   0.0000       0.210243         5.7210 
  98   0.0000       0.212309         5.7772 
  99   0.0000       0.214103         5.8260 
 100   0.0000       0.219240         5.9658 
 101   0.0000       0.225940         6.1481 
 102   0.0000       0.231239         6.2923 
 103   0.0000       0.233905         6.3649 
 104   0.0000       0.235634         6.4119 
 105   0.0000       0.236343         6.4312 
 106   0.0000       0.242176         6.5900 
 107   0.0000       0.243080         6.6145 
 108   0.0000       0.252958         6.8833 
 109   0.0000       0.257680         7.0118 
 110   0.0000       0.258022         7.0211 
 111   0.0000       0.261432         7.1139 
 112   0.0000       0.265176         7.2158 
 113   0.0000       0.267543         7.2802 
 114   0.0000       0.271959         7.4004 
 115   0.0000       0.273802         7.4505 
 116   0.0000       0.280876         7.6430 
 117   0.0000       0.289208         7.8697 
 118   0.0000       0.289650         7.8818 
 119   0.0000       0.294126         8.0036 
 120   0.0000       0.302025         8.2185 
 121   0.0000       0.306527         8.3410 
 122   0.0000       0.323225         8.7954 
 123   0.0000       0.327725         8.9178 
 124   0.0000       0.341199         9.2845 
 125   0.0000       0.345597         9.4042 
 126   0.0000       0.348136         9.4733 
 127   0.0000       0.358362         9.7515 
 128   0.0000       0.370160        10.0726 
 129   0.0000       0.380188        10.3455 
 130   0.0000       0.382881        10.4187 
 131   0.0000       0.389796        10.6069 
 132   0.0000       0.394729        10.7411 
 133   0.0000       0.407377        11.0853 
 134   0.0000       0.423097        11.5131 
 135   0.0000       0.430322        11.7097 
 136   0.0000       0.441433        12.0120 
 137   0.0000       0.454183        12.3589 
 138   0.0000       0.464906        12.6507 
 139   0.0000       0.467850        12.7308 
 140   0.0000       0.469159        12.7665 
 141   0.0000       0.479788        13.0557 
 142   0.0000       0.496104        13.4997 
 143   0.0000       0.499458        13.5910 
 144   0.0000       0.527476        14.3534 
 145   0.0000       0.531822        14.4716 
 146   0.0000       0.538872        14.6635 
 147   0.0000       0.551334        15.0025 
 148   0.0000       0.552085        15.0230 
 149   0.0000       0.559664        15.2292 
 150   0.0000       0.562194        15.2981 
 151   0.0000       0.567985        15.4557 
 152   0.0000       0.569325        15.4921 
 153   0.0000       0.580451        15.7949 
 154   0.0000       0.581644        15.8273 
 155   0.0000       0.593102        16.1391 
 156   0.0000       0.596184        16.2230 
 157   0.0000       0.599615        16.3163 
 158   0.0000       0.606556        16.5052 
 159   0.0000       0.612223        16.6594 
 160   0.0000       0.612811        16.6754 
 161   0.0000       0.639333        17.3971 
 162   0.0000       0.647765        17.6266 
 163   0.0000       0.649184        17.6652 
 164   0.0000       0.650071        17.6893 
 165   0.0000       0.660050        17.9609 
 166   0.0000       0.661333        17.9958 
 167   0.0000       0.671892        18.2831 
 168   0.0000       0.672819        18.3083 
 169   0.0000       0.682340        18.5674 
 170   0.0000       0.682617        18.5749 
 171   0.0000       0.693442        18.8695 
 172   0.0000       0.699777        19.0419 
 173   0.0000       0.705774        19.2051 
 174   0.0000       0.721475        19.6323 
 175   0.0000       0.729578        19.8528 
 176   0.0000       0.742216        20.1967 
 177   0.0000       0.751388        20.4463 
 178   0.0000       0.758846        20.6492 
 179   0.0000       0.761583        20.7237 
 180   0.0000       0.762216        20.7409 
 181   0.0000       0.766472        20.8568 
 182   0.0000       0.784924        21.3589 
 183   0.0000       0.804966        21.9042 
 184   0.0000       0.828452        22.5433 
 185   0.0000       0.834518        22.7084 
 186   0.0000       0.847789        23.0695 
 187   0.0000       0.863313        23.4919 
 188   0.0000       0.877464        23.8770 
 189   0.0000       0.893160        24.3041 
 190   0.0000       0.902525        24.5589 
 191   0.0000       0.913049        24.8453 
 192   0.0000       0.932012        25.3613 
 193   0.0000       0.934469        25.4282 
 194   0.0000       0.945231        25.7210 
 195   0.0000       0.954427        25.9713 
 196   0.0000       0.960369        26.1330 
 197   0.0000       0.962829        26.1999 
 198   0.0000       0.964580        26.2476 
 199   0.0000       0.979973        26.6664 
 200   0.0000       0.982194        26.7269 
 201   0.0000       0.986724        26.8501 
 202   0.0000       1.008020        27.4296 
 203   0.0000       1.014686        27.6110 
 204   0.0000       1.022493        27.8235 
 205   0.0000       1.034901        28.1611 
 206   0.0000       1.035341        28.1730 
 207   0.0000       1.037605        28.2347 
 208   0.0000       1.047773        28.5114 
 209   0.0000       1.059649        28.8345 
 210   0.0000       1.062506        28.9122 
 211   0.0000       1.076087        29.2818 
 212   0.0000       1.099335        29.9144 
 213   0.0000       1.105493        30.0820 
 214   0.0000       1.115836        30.3634 
 215   0.0000       1.118210        30.4280 
 216   0.0000       1.124495        30.5991 
 217   0.0000       1.147187        31.2166 
 218   0.0000       1.165757        31.7219 
 219   0.0000       1.169542        31.8249 
 220   0.0000       1.203401        32.7462 
 221   0.0000       1.256581        34.1933 
 222   0.0000       1.305801        35.5327 
 223   0.0000       1.326455        36.0947 
 224   0.0000       1.335908        36.3519 
 225   0.0000       1.344616        36.5889 
 226   0.0000       1.372153        37.3382 
 227   0.0000       1.401286        38.1309 
 228   0.0000       1.404726        38.2245 
[...]
 762  111384.1     89.8    -10.41187  -0.22839   0.00140  -0.64071
 763  111384.2     89.8     10.47755   0.37842  -0.00253  -0.38737
 764  111454.9     89.7     -0.00354   0.00014   0.00001   0.07494
 765  111508.3     89.7      0.00538  -0.04999  -0.03126   0.00007
 766  111529.2     89.7      0.00022   0.00014  -0.00002  -0.02664
 767  111566.4     89.6     -0.01978   0.00570   0.00395   0.00033
 768  111622.0     89.6      0.00328   0.00017  -0.00001  -0.00759
 769  111652.9     89.6      0.01800   0.26490   0.01662  -0.00034
 770  111715.6     89.5     -0.18025  -0.00103  -0.00003  -0.49230
 771  111720.2     89.5      0.13563  -0.24898   0.00440   0.00172
 772  111741.8     89.5     -0.03021  -0.00023   0.00007  -0.27356
 773  111759.8     89.5      0.05903  -0.01171   0.00370  -0.00090
 774  111814.2     89.4      0.11647   0.21420  -0.01055   0.00056
 775  111893.2     89.4      0.00595   0.00068   0.19730   0.00156
 776  111969.9     89.3     -0.07619  -0.00035  -0.00012   0.78859
 777  111973.0     89.3     -0.02197   0.00041   0.00045  -0.52170
 778  111986.1     89.3     -0.00020   0.00093  -0.06149   0.00206
 779  112045.3     89.2     -0.00205  -0.00980  -0.08928  -0.00157
 780  112104.1     89.2      0.05761   0.15848   0.00413   0.00384
 781  112110.4     89.2     -0.07314  -0.00145  -0.00009   0.36977
 782  112255.2     89.1     -0.09663  -0.00025   0.00048  -0.56764
 783  112315.4     89.0      0.07533   0.05202   0.00098  -0.00182
 784  112358.3     89.0     -0.01451   0.00760  -0.20924   0.00029
 785  112369.7     89.0      0.11463   0.07628   0.01304  -0.00176
 786  112390.0     89.0     -0.08630   0.00009   0.00037   0.39845
 787  112433.8     88.9     -0.02291  -0.00010   0.00026   0.17211
 788  112562.7     88.8     -0.01766   0.02366  -0.33642   0.00004
 789  112572.3     88.8      0.04115  -0.00047   0.00113   0.04596
 790  112591.6     88.8      0.00203   0.00009  -0.00011  -0.19067
 791  112629.4     88.8     -0.25044  -0.00451  -0.00052  -0.95801
 792  112634.5     88.8      0.20807  -0.42841  -0.02694   0.00972
 793  112712.3     88.7     -0.01676   0.03857   0.11563  -0.00056
 794  112746.5     88.7     -0.01573  -0.04798   0.12666   0.00037
 795  112826.0     88.6     -0.00176  -0.08248   0.01055   0.00000
 796  112857.8     88.6      0.02547   0.00017  -0.00022  -0.14243
 797  112879.3     88.6     -0.02137  -0.02000   0.09486   0.00026
 798  113003.1     88.5     -0.02712  -0.11362   0.05451   0.01236
 799  113006.2     88.5      0.01058   0.00253  -0.00116   0.49156
 800  113038.5     88.5      0.00371  -0.00004  -0.00012   0.14670
 801  113054.1     88.5      0.02795   0.00163   0.00622  -0.03195
 802  113058.8     88.4     -0.06795   0.03797   0.50870  -0.00060
 803  113074.5     88.4      0.08205   0.09893  -0.07597   0.00351
 804  113112.8     88.4     -0.04121  -0.00045   0.00112   0.49142
 805  113189.0     88.3     -0.00460  -0.00002   0.00064  -0.06393
 806  113276.8     88.3     -0.01917  -0.11472   0.02989  -0.00085
 807  113296.7     88.3      0.05339   0.04289  -0.10345  -0.00065
 808  113322.4     88.2     -0.04962   0.06398   0.20451   0.00622
 809  113324.6     88.2      0.20297   0.00166   0.00504  -0.24995
 810  113333.3     88.2      0.04051  -0.04213  -0.09400   0.00209
 811  113372.0     88.2     -0.18615   0.00024   0.00074  -0.04607
 812  113396.1     88.2      0.05140  -0.10724   0.14680  -0.00198
 813  113410.3     88.2     -0.06544   0.00076  -0.00098  -0.36840
 814  113434.6     88.2     -0.00685  -0.00171  -0.10156  -0.00040
 815  113457.2     88.1      0.02085   0.05690   0.05839  -0.00023
 816  113513.5     88.1     -0.01457   0.00013   0.00045   0.32827
 817  113598.7     88.0      0.00512   0.00003  -0.00005   0.18146
 818  113643.0     88.0     -0.02180   0.00015   0.00001  -0.53672
 819  113706.6     87.9      0.00507   0.02550  -0.04540   0.00086
 820  113752.1     87.9      0.01309  -0.07605   0.06453  -0.00058
 821  113768.3     87.9      0.02465  -0.04559  -0.12104  -0.00017
 822  113824.2     87.9     -0.12947  -0.00002  -0.00220  -0.06256
 823  113832.2     87.8      0.16634  -0.00040   0.23826  -0.00131
 824  113850.2     87.8     -0.04900   0.00004  -0.00140  -0.10670
 825  113912.5     87.8      0.00333  -0.05882  -0.01412   0.00049
 826  113951.5     87.8     -0.00629   0.00057   0.39209   0.00031
 827  114072.8     87.7     -0.01536  -0.00343  -0.15664   0.00038
 828  114075.1     87.7      0.01119   0.00001  -0.00018   0.03843
 829  114093.0     87.6      0.00924   0.00992  -0.08315  -0.00034
 830  114221.7     87.5      0.01170  -0.00003   0.00018  -0.05934
 831  114243.2     87.5     -0.00178  -0.00009   0.00014   0.10328
 832  114251.6     87.5     -0.00047   0.00047   0.00463   0.00060
 833  114301.0     87.5      0.02428  -0.09550   0.10287   0.00040
 834  114322.2     87.5      0.00822   0.00009   0.00013  -0.12938
 835  114331.7     87.5     -0.00988   0.18842   0.03904   0.00015
 836  114333.2     87.5     -0.01903  -0.00041  -0.00022   0.01144
 837  114383.0     87.4      0.00467  -0.00002   0.00022   0.04775
 838  114392.7     87.4      0.00430  -0.00016  -0.00008  -0.02222
 839  114462.2     87.4     -0.00587  -0.08603   0.01192   0.00102
 840  114547.9     87.3      0.00123   0.00000  -0.00001   0.00356
 841  114585.1     87.3      0.02814  -0.00010  -0.00003  -0.65488
 842  114706.4     87.2      0.00296   0.00013  -0.00000  -0.09300
 843  114774.2     87.1      0.00006  -0.09666  -0.02094  -0.00003
 844  114917.2     87.0      0.00441   0.00006  -0.00001  -0.13070
 845  114962.6     87.0      0.00270  -0.00000   0.00006   0.15260
 846  115018.0     86.9     -0.12185   0.00000   0.00004  -0.66570
 847  115043.2     86.9      0.08014  -0.01893  -0.00310   0.00144
 848  115143.4     86.8      0.00492   0.00006  -0.00003  -0.09947
 849  115205.9     86.8      0.00224   0.00004  -0.00007   0.03188
 850  115284.3     86.7     -0.01989  -0.19533   0.00854  -0.00050
 851  115285.9     86.7     -0.00258  -0.00143   0.00015   0.03689
 852  115334.2     86.7     -0.02988  -0.00023   0.00010  -0.24184
 853  115398.1     86.7      0.04059  -0.00240   0.01043   0.01030
 854  115400.1     86.7     -0.01745  -0.00007  -0.00022   0.42553
 855  115421.1     86.6      0.03856  -0.00009  -0.00004   0.48593
 856  115452.7     86.6      0.07117   0.00518   0.00096  -0.07230
 857  115453.1     86.6     -0.10094   0.05563   0.01172   0.00560
 858  115456.6     86.6      0.00934  -0.07101  -0.00767  -0.00048
 859  115574.0     86.5      0.01557   0.13919   0.05475   0.00001
 860  115586.2     86.5     -0.06216   0.02057  -0.14903   0.00071
 861  115594.5     86.5      0.04494  -0.00032  -0.00108  -0.08256
 862  115604.1     86.5     -0.01996   0.00034   0.00016   0.06315
 863  115680.2     86.4      0.00510   0.00003  -0.00007  -0.02560
 864  115720.5     86.4     -0.11022  -0.00389  -0.00003   0.00081
 865  115753.6     86.4      0.07605   0.00002  -0.00001  -0.34407
 866  115867.5     86.3     -0.00690  -0.01901   0.05023   0.00090
 867  115915.9     86.3      0.01725  -0.00020   0.00031  -0.02984
 868  115962.3     86.2      0.02562  -0.00000  -0.00011   0.37693
 869  115985.5     86.2     -0.00173   0.00917   0.01370  -0.00031
 870  116043.6     86.2     -0.02932   0.00008   0.00132  -0.00984
 871  116050.4     86.2      0.03179   0.00892   0.22044   0.00008
 872  116232.2     86.0     -0.00769   0.12141  -0.04354  -0.00005
 873  116304.0     86.0      0.00288  -0.00003  -0.00006  -0.01716
 874  116320.9     86.0     -0.01203  -0.00679   0.01084   0.00044
 875  116381.6     85.9     -0.02536   0.02182  -0.08600  -0.00178
 876  116396.6     85.9      0.00120   0.00005   0.00017  -0.26076
 877  116407.2     85.9     -0.00029  -0.00003   0.00000  -0.13869
 878  116418.9     85.9      0.00727  -0.00007  -0.00028   0.22801
 879  116447.2     85.9      0.08345   0.00276   0.09509   0.00331
 880  116465.7     85.9     -0.09075   0.00002  -0.00016   0.76474
 881  116497.5     85.8      0.03132  -0.01136  -0.11247   0.00165
 882  116505.8     85.8     -0.00167  -0.05350   0.00273  -0.00020
 883  116616.7     85.8     -0.00154   0.01368   0.03351  -0.00000
 884  116655.7     85.7      0.00283   0.06271   0.01962   0.00034
 885  116683.1     85.7     -0.00710   0.00013   0.00064  -0.03132
 886  116704.3     85.7      0.04939  -0.00537   0.33642   0.00008
 887  116732.4     85.7     -0.02649  -0.00018   0.00102   0.02771
 888  116764.7     85.6     -0.00019  -0.00038  -0.00817   0.00024
 889  116866.6     85.6      0.00909  -0.00009   0.00031  -0.00643
 890  116875.1     85.6      0.00023   0.00803  -0.05538   0.00048
 891  116925.2     85.5     -0.00145  -0.00005   0.00010  -0.00463
 892  117022.7     85.5      0.00473   0.00006   0.00022  -0.20293
 893  117049.1     85.4      0.00377   0.00001  -0.00004  -0.03583
 894  117092.8     85.4     -0.00888  -0.00013   0.00009  -0.07086
 895  117140.8     85.4     -0.03756   0.20324  -0.01518  -0.00046
 896  117147.5     85.4     -0.03934  -0.02183  -0.21154   0.00017
 897  117170.3     85.3      0.08145   0.00001   0.00029   0.34725
 898  117183.6     85.3     -0.19176   0.18684   0.00696   0.00153
 899  117252.5     85.3      0.11254   0.00018   0.00002  -0.79172
 900  117303.0     85.2      0.03680   0.10611  -0.02714  -0.00192
 901  117349.7     85.2      0.00492   0.00248   0.07367   0.00014
 902  117374.2     85.2      0.02673  -0.00005   0.00022  -0.46386
 903  117447.4     85.1     -0.00051  -0.00014   0.00012   0.14062
 904  117515.2     85.1      0.03854  -0.06693   0.01682   0.00740
 905  117519.2     85.1     -0.03525   0.00098  -0.00018   0.45785
 906  117554.5     85.1      0.00733   0.00010  -0.00009   0.30732
 907  117616.2     85.0     -0.14063  -0.00000   0.00018   0.38376
 908  117628.3     85.0      0.13850   0.00936  -0.01300   0.00328
 909  117653.4     85.0      0.00012   0.00161  -0.06301   0.00043
 910  117718.4     84.9      0.11055   0.00105   0.00011  -0.20085
 911  117733.6     84.9     -0.10430   0.18176  -0.00177   0.00099
 912  117757.8     84.9     -0.00164   0.00002  -0.00001   0.06074
 913  117788.2     84.9     -0.00922   0.19280  -0.01548  -0.00009
 914  117836.7     84.9      0.00096  -0.00033  -0.00025  -0.21788
 915  117872.1     84.8     -0.01564  -0.01258  -0.15688   0.00037
 916  117909.9     84.8      0.01497  -0.02087  -0.03536   0.00032
 917  117932.0     84.8      0.00061  -0.00005  -0.00009   0.14025
 918  118058.1     84.7      0.00958  -0.00006   0.00006   0.16295
 919  118069.6     84.7      0.00616  -0.00647  -0.13504   0.00016
 920  118152.9     84.6     -0.00465   0.00007   0.00003  -0.22014
 921  118209.7     84.6      0.00279   0.01200   0.10899  -0.00032
 922  118248.6     84.6      0.01702   0.00009  -0.00046  -0.21332
 923  118268.3     84.6     -0.00724  -0.00000   0.00017   0.17487
 924  118283.9     84.5      0.00242  -0.00655  -0.12067   0.00042
 925  118293.4     84.5      0.00228  -0.02334   0.01011  -0.00014
 926  118304.5     84.5     -0.00455   0.01943  -0.00826   0.00077
 927  118370.9     84.5      0.01020  -0.00537  -0.15572   0.00059
 928  118475.4     84.4     -0.04080  -0.00043  -0.00050  -0.28763
 929  118479.3     84.4      0.04553   0.01296   0.01227  -0.01090
 930  118498.1     84.4     -0.01342   0.00038  -0.00035  -0.00086
 931  118500.6     84.4      0.00406  -0.04556   0.03024  -0.00050
 932  118606.2     84.3      0.00402  -0.00006   0.00001   0.15987
 933  118660.5     84.3      0.00534   0.00039  -0.00002  -0.09448
 934  118666.8     84.3     -0.00679  -0.09050  -0.00699  -0.00058
 935  118765.3     84.2      0.00085   0.07828  -0.00856  -0.00008
 936  118842.2     84.1      0.00004  -0.00002   0.00010  -0.02338
 937  118901.9     84.1     -0.00217   0.00476   0.05705   0.00044
 938  118960.2     84.1     -0.00151   0.00277  -0.17212  -0.00067
 939  119025.3     84.0     -0.05002  -0.00101  -0.00013   0.37916
 940  119027.7     84.0     -0.01037  -0.07580  -0.00770   0.00125
 941  119046.8     84.0      0.04785  -0.00071   0.00013  -0.64654
 942  119162.0     83.9     -0.00623   0.00001   0.00006  -0.35067
 943  119214.4     83.9      0.03367   0.01946  -0.17109   0.00015
 944  119280.6     83.8     -0.04709  -0.00063  -0.00044  -0.00294
 945  119301.8     83.8      0.00786  -0.09842  -0.01575  -0.00014
 946  119406.1     83.7     -0.00346   0.00009   0.00006  -0.00447
 947  119443.1     83.7      0.02509   0.04077  -0.00389  -0.00053
 948  119450.6     83.7      0.00289  -0.06914  -0.00535   0.00016
 949  119455.1     83.7     -0.02280  -0.00115  -0.00018  -0.03499
 950  119500.0     83.7      0.01037   0.00020  -0.00004  -0.25996
 951  119507.6     83.7     -0.01095   0.02988  -0.00614   0.00034
 952  119578.8     83.6     -0.01329  -0.02618   0.05655  -0.00051
 953  119629.0     83.6      0.36625  -0.05174  -0.01422   0.00809
 954  119637.7     83.6     -0.35778   0.00062   0.00023   0.66064
 955  119664.3     83.6     -0.03008  -0.00018  -0.00008  -0.18147
 956  119738.5     83.5      0.02001  -0.00013   0.00022  -0.33603
 957  119746.6     83.5      0.01095  -0.03073   0.04155  -0.00032
 958  119759.2     83.5      0.03648  -0.00071  -0.00016   0.33987
 959  119767.6     83.5     -0.06703  -0.04510  -0.02938  -0.00371
 960  119834.0     83.4      0.88595  -0.04410  -0.01317  -0.02435
 961  119834.1     83.4     -0.86048  -0.00940  -0.00264   0.11229
 962  119873.9     83.4     -0.04454   0.00061   0.00002   0.69451
 963  119885.1     83.4      0.01967  -0.22073   0.00978   0.00243
 964  119937.0     83.4      0.00618   0.00004  -0.00001  -0.27605
 965  119981.4     83.3      0.00009  -0.00005   0.00016   0.05273
 966  120018.4     83.3     -0.02194   0.10858   0.06541  -0.00024
 967  120042.6     83.3      0.00035   0.00001  -0.00002  -0.01340
 968  120164.4     83.2      0.00507  -0.00349   0.00334   0.00015
 969  120213.3     83.2     -0.01490  -0.00002  -0.00007  -0.13734
 970  120228.2     83.2      0.07121  -0.00015  -0.00093  -0.09223
 971  120237.9     83.2     -0.08820   0.03671   0.15803  -0.00054
 972  120247.9     83.2      0.04313  -0.04410   0.00888  -0.00040
 973  120322.8     83.1      0.02982  -0.00006   0.00006  -0.25668
 974  120352.8     83.1     -0.09200   0.00016   0.00078  -0.35150
 975  120360.6     83.1      0.07363   0.01811   0.09006   0.00247
 976  120419.7     83.0      0.01881  -0.00288   0.07637   0.00022
 977  120485.8     83.0      0.00150   0.00012  -0.00010   0.06950
 978  120497.0     83.0     -0.09374   0.00029  -0.00004  -0.18363
 979  120517.4     83.0      0.10123  -0.07470   0.02618  -0.00075
 980  120576.4     82.9      0.00987   0.00659   0.02055   0.00046
 981  120683.8     82.9     -0.45080   0.00089  -0.00333  -0.07913
 982  120684.9     82.9      0.43060   0.06097  -0.19396   0.00126
 983  120768.1     82.8      0.00162  -0.00025   0.00015  -0.06559
 984  120790.5     82.8      0.00075  -0.00045   0.00003  -0.00700
 985  120815.4     82.8      0.00832  -0.18086  -0.01833  -0.00043
 986  120896.7     82.7      0.01488   0.04808  -0.00019  -0.00085
 987  120941.3     82.7     -0.02028   0.00009  -0.00026  -0.38225
 988  120977.6     82.7      0.01929   0.00489   0.04242  -0.00139
 989  121057.8     82.6      0.00473  -0.00432  -0.05246   0.00013
 990  121112.0     82.6     -0.07698   0.00001   0.00132   0.04660
 991  121112.8     82.6      0.07976  -0.00054  -0.06497   0.00091
 992  121137.9     82.6      0.00077   0.00182  -0.13686  -0.00023
 993  121176.8     82.5      0.01051   0.00659  -0.09370   0.00010
 994  121219.1     82.5      0.00367  -0.00003  -0.00021   0.13511
 995  121264.7     82.5     -0.02202   0.00001  -0.00017   0.15339
 996  121301.6     82.4     -0.00233  -0.04191  -0.00214   0.00006
 997  121332.6     82.4     -0.02782  -0.00216   0.10606  -0.00010
 998  121362.4     82.4     -0.03085   0.00462   0.09681   0.00027
 999  121404.2     82.4      0.02899  -0.00004   0.00019   0.12101
 1000  121432.3     82.4     -0.00094  -0.00765  -0.02281   0.00065

Total run time:     9114.202 sec

           *** ORCA-CIS/TD-DFT FINISHED WITHOUT ERROR ***

Maximum memory used throughout the entire CIS-calculation: 4497.9 MB

-----------------------
CIS/TD-DFT TOTAL ENERGY
-----------------------

    E(SCF)  =   -577.408031010 Eh
    DE(CIS) =      0.146371393 Eh (Root  1)
    ----------------------------- ---------
    E(tot)  =   -577.261659616 Eh



-------------------------------------------------------------------------------
                          DFT DISPERSION CORRECTION                            
                                                                               
                                 DFTD4 V2.5                                    
-------------------------------------------------------------------------------
The B3LYP functional is recognized
Active option DFTDOPT                   ...         5   

Starting D4
-------------------------   ----------------
Dispersion correction           -0.059109563
-------------------------   ----------------


-------------------------   --------------------
FINAL SINGLE POINT ENERGY      -577.320769179500
-------------------------   --------------------


                            ***************************************
                            *     ORCA property calculations      *
                            ***************************************

                                    ---------------------
                                    Active property flags
                                    ---------------------
   (+) Dipole Moment


------------------------------------------------------------------------------
                       ORCA ELECTRIC PROPERTIES CALCULATION
------------------------------------------------------------------------------

Dipole Moment Calculation                       ... on
Quadrupole Moment Calculation                   ... off
Polarizability Calculation                      ... off
GBWName                                         ... 4HCyclopentadefphenanthrene_spectra.gbw
Electron density                                ... 4HCyclopentadefphenanthrene_spectra.scfp
The origin for moment calculation is the CENTER OF MASS  = ( 0.000000,  0.020062 -0.000013)

-------------
DIPOLE MOMENT
-------------
                                X             Y             Z
Electronic contribution:     -0.00001       1.20941      -0.00007
Nuclear contribution   :     -0.00000      -1.46901       0.00008
                        -----------------------------------------
Total Dipole Moment    :     -0.00001      -0.25960       0.00001
                        -----------------------------------------
Magnitude (a.u.)       :      0.25960
Magnitude (Debye)      :      0.65985



--------------------
Rotational spectrum 
--------------------
 
Rotational constants in cm-1:     0.040925     0.020370     0.013635 
Rotational constants in MHz :  1226.886748   610.683976   408.760723 

 Dipole components along the rotational axes: 
x,y,z [a.u.] :     0.000012    -0.259598     0.000008 
x,y,z [Debye]:     0.000030    -0.659847     0.000021 

 

Timings for individual modules:

Sum of individual times         ...     9949.460 sec (= 165.824 min)
GTO integral calculation        ...        0.517 sec (=   0.009 min)   0.0 %
SCF iterations                  ...      834.565 sec (=  13.909 min)   8.4 %
CIS module                      ...     9114.378 sec (= 151.906 min)  91.6 %
                             ****ORCA TERMINATED NORMALLY****
TOTAL RUN TIME: 0 days 2 hours 45 minutes 50 seconds 104 msec
