
                                 *****************
                                 * O   R   C   A *
                                 *****************

                                            #,                                       
                                            ###                                      
                                            ####                                     
                                            #####                                    
                                            ######                                   
                                           ########,                                 
                                     ,,################,,,,,                         
                               ,,#################################,,                 
                          ,,##########################################,,             
                       ,#########################################, ''#####,          
                    ,#############################################,,   '####,        
                  ,##################################################,,,,####,       
                ,###########''''           ''''###############################       
              ,#####''   ,,,,##########,,,,          '''####'''          '####       
            ,##' ,,,,###########################,,,                        '##       
           ' ,,###''''                  '''############,,,                           
         ,,##''                                '''############,,,,        ,,,,,,###''
      ,#''                                            '''#######################'''  
     '                                                          ''''####''''         
             ,#######,   #######,   ,#######,      ##                                
            ,#'     '#,  ##    ##  ,#'     '#,    #''#        ######   ,####,        
            ##       ##  ##   ,#'  ##            #'  '#       #        #'  '#        
            ##       ##  #######   ##           ,######,      #####,   #    #        
            '#,     ,#'  ##    ##  '#,     ,#' ,#      #,         ##   #,  ,#        
             '#######'   ##     ##  '#######'  #'      '#     #####' # '####'        



                  #######################################################
                  #                        -***-                        #
                  #          Department of theory and spectroscopy      #
                  #    Directorship and core code : Frank Neese         #
                  #        Max Planck Institute fuer Kohlenforschung    #
                  #                Kaiser Wilhelm Platz 1               #
                  #                 D-45470 Muelheim/Ruhr               #
                  #                      Germany                        #
                  #                                                     #
                  #                  All rights reserved                #
                  #                        -***-                        #
                  #######################################################



                         Program Version 5.0.4 -  RELEASE  -

 With contributions from (in alphabetic order):
   Daniel Aravena         : Magnetic Suceptibility
   Michael Atanasov       : Ab Initio Ligand Field Theory (pilot matlab implementation)
   Alexander A. Auer      : GIAO ZORA, VPT2 properties, NMR spectrum
   Ute Becker             : Parallelization
   Giovanni Bistoni       : ED, misc. LED, open-shell LED, HFLD
   Martin Brehm           : Molecular dynamics
   Dmytro Bykov           : SCF Hessian
   Vijay G. Chilkuri      : MRCI spin determinant printing, contributions to CSF-ICE
   Dipayan Datta          : RHF DLPNO-CCSD density
   Achintya Kumar Dutta   : EOM-CC, STEOM-CC
   Dmitry Ganyushin       : Spin-Orbit,Spin-Spin,Magnetic field MRCI
   Miquel Garcia          : C-PCM and meta-GGA Hessian, CC/C-PCM, Gaussian charge scheme
   Yang Guo               : DLPNO-NEVPT2, F12-NEVPT2, CIM, IAO-localization
   Andreas Hansen         : Spin unrestricted coupled pair/coupled cluster methods
   Benjamin Helmich-Paris : MC-RPA, TRAH-SCF, COSX integrals
   Lee Huntington         : MR-EOM, pCC
   Robert Izsak           : Overlap fitted RIJCOSX, COSX-SCS-MP3, EOM
   Marcus Kettner         : VPT2
   Christian Kollmar      : KDIIS, OOCD, Brueckner-CCSD(T), CCSD density, CASPT2, CASPT2-K
   Simone Kossmann        : Meta GGA functionals, TD-DFT gradient, OOMP2, MP2 Hessian
   Martin Krupicka        : Initial AUTO-CI
   Lucas Lang             : DCDCAS
   Marvin Lechner         : AUTO-CI (C++ implementation), FIC-MRCC
   Dagmar Lenk            : GEPOL surface, SMD
   Dimitrios Liakos       : Extrapolation schemes; Compound Job, initial MDCI parallelization
   Dimitrios Manganas     : Further ROCIS development; embedding schemes
   Dimitrios Pantazis     : SARC Basis sets
   Anastasios Papadopoulos: AUTO-CI, single reference methods and gradients
   Taras Petrenko         : DFT Hessian,TD-DFT gradient, ASA, ECA, R-Raman, ABS, FL, XAS/XES, NRVS
   Peter Pinski           : DLPNO-MP2, DLPNO-MP2 Gradient
   Christoph Reimann      : Effective Core Potentials
   Marius Retegan         : Local ZFS, SOC
   Christoph Riplinger    : Optimizer, TS searches, QM/MM, DLPNO-CCSD(T), (RO)-DLPNO pert. Triples
   Tobias Risthaus        : Range-separated hybrids, TD-DFT gradient, RPA, STAB
   Michael Roemelt        : Original ROCIS implementation
   Masaaki Saitow         : Open-shell DLPNO-CCSD energy and density
   Barbara Sandhoefer     : DKH picture change effects
   Avijit Sen             : IP-ROCIS
   Kantharuban Sivalingam : CASSCF convergence, NEVPT2, FIC-MRCI
   Bernardo de Souza      : ESD, SOC TD-DFT
   Georgi Stoychev        : AutoAux, RI-MP2 NMR, DLPNO-MP2 response
   Willem Van den Heuvel  : Paramagnetic NMR
   Boris Wezisla          : Elementary symmetry handling
   Frank Wennmohs         : Technical directorship


 We gratefully acknowledge several colleagues who have allowed us to
 interface, adapt or use parts of their codes:
   Stefan Grimme, W. Hujo, H. Kruse, P. Pracht,  : VdW corrections, initial TS optimization,
                  C. Bannwarth, S. Ehlert          DFT functionals, gCP, sTDA/sTD-DF
   Ed Valeev, F. Pavosevic, A. Kumar             : LibInt (2-el integral package), F12 methods
   Garnet Chan, S. Sharma, J. Yang, R. Olivares  : DMRG
   Ulf Ekstrom                                   : XCFun DFT Library
   Mihaly Kallay                                 : mrcc  (arbitrary order and MRCC methods)
   Jiri Pittner, Ondrej Demel                    : Mk-CCSD
   Frank Weinhold                                : gennbo (NPA and NBO analysis)
   Christopher J. Cramer and Donald G. Truhlar   : smd solvation model
   Lars Goerigk                                  : TD-DFT with DH, B97 family of functionals
   V. Asgeirsson, H. Jonsson                     : NEB implementation
   FAccTs GmbH                                   : IRC, NEB, NEB-TS, DLPNO-Multilevel, CI-OPT
                                                   MM, QMMM, 2- and 3-layer-ONIOM, Crystal-QMMM,
                                                   LR-CPCM, SF, NACMEs, symmetry and pop. for TD-DFT,
                                                   nearIR, NL-DFT gradient (VV10), updates on ESD,
                                                   ML-optimized integration grids
   S Lehtola, MJT Oliveira, MAL Marques          : LibXC Library
   Liviu Ungur et al                             : ANISO software


 Your calculation uses the libint2 library for the computation of 2-el integrals
 For citations please refer to: http://libint.valeyev.net

 Your ORCA version has been built with support for libXC version: 5.1.0
 For citations please refer to: https://tddft.org/programs/libxc/

 This ORCA versions uses:
   CBLAS   interface :  Fast vector & matrix operations
   LAPACKE interface :  Fast linear algebra routines
   Shared memory     :  Shared parallel matrices


Your calculation utilizes the atom-pairwise dispersion correction
based on tight binding partial charges (D4)
Cite in your paper:
E.Caldeweyher, C.Bannwarth, S.Grimme, J.Chem.Phys., (2017), 147, 034112.
E.Caldeweyher, S.Ehlert, A.Hansen, H.Neugebauer, S.Grimme, J.Chem.Phys., (2018), in progress.
   

================================================================================

----- Orbital basis set information -----
Your calculation utilizes the basis: 6-311G**
   H, Li - Ne  : R. Krishnan, J. S. Binkley, R. Seeger and J. A. Pople, J. Chem. Phys. 72, 650 (1980).
   Na - Ar     : A. D. McLean and G. S. Chandler J. Chem. Phys. 72, 5639, (1980).
   K  - Ca     : J.-P. Blaudeau, M. P. McGrath, L. A. Curtiss and L. Radom, J. Chem. Phys. 107, 5016 (1997).
   Ga - Kr     : L. A. Curtiss, M. P. McGrath, J.-P. Blandeau, N. E. Davis, R. C. Binning and L. Radom, J. Chem. Phys. 103, 6104 (1995).
   Pol./Diff.
   H, Li - Cl  : T. Clark, J. Chandrasekhar and P. v. R. Schleyer, J. Comp. Chem. 4, 294 (1983).
   H - Ne      : M. J. Frisch, J. A. Pople and J. S. Binkley, J. Chem. Phys. 80, 3265 (1984).

----- AuxJ basis set information -----
Your calculation utilizes the auxiliary basis: def2/J
   F. Weigend, Phys. Chem. Chem. Phys. 8, 1057 (2006).

================================================================================
                                        WARNINGS
                       Please study these warnings very carefully!
================================================================================


WARNING: Geometry Optimization
  ===> : Switching off AutoStart
         For restart on a previous wavefunction, please use MOREAD

INFO   : the flag for use of the SHARK integral package has been found!

================================================================================
                                       INPUT FILE
================================================================================
NAME = eight_seven_eleven_twelve_opt.inp
|  1> !b3lyp 6-311g** d4 pal4 opt freq tightscf
|  2> 
|  3> 
|  4> 
|  5> * xyz 0 1
|  6>   C   2.45146015378047     -2.79640829756391     -0.00000894950360
|  7>   C   1.27745030019084     -3.48801980570912     -0.00004239042501
|  8>   C   0.03099629018149     -2.81476915991496     -0.00012045972332
|  9>   C   -1.20039443629787     -3.52370642524107     -0.00015136516890
| 10>   C   -2.38821402949969     -2.86374444469335     -0.00023012567495
| 11>   C   -2.43891647858436     -1.44278925697839     -0.00026805810319
| 12>   C   -3.67480088246149     -0.75352119808346     -0.00034437777681
| 13>   C   -3.72585188064763      0.61033698072383     -0.00038628640246
| 14>   C   -2.53276701463914      1.35918741087317     -0.00035640484738
| 15>   C   -2.34636446949512      2.75355673162154     -0.00039264917206
| 16>   C   -1.29642550587759      3.37994910058606     -0.00036530483861
| 17>   C   0.01703770712128      2.87663910661279     -0.00029059715926
| 18>   C   1.24338469310856      3.57000342008993     -0.00026002298658
| 19>   C   2.42207420744963      2.88216826627037     -0.00018620143084
| 20>   C   2.43229461663392      1.46799832610532     -0.00014351445541
| 21>   C   3.60647775938701      0.69813665880269     -0.00006864981400
| 22>   C   3.68586880298473     -0.64074321609760     -0.00002058571173
| 23>   C   2.46168272024364     -1.37976554725807     -0.00005005614565
| 24>   C   1.23625395499842     -0.68245903152754     -0.00012911256075
| 25>   C   1.21407015970430      0.74460840470203     -0.00017304030119
| 26>   C   -0.02185536716425      1.44662046532696     -0.00024755378658
| 27>   C   -1.25871143457760      0.71015369723078     -0.00027752224613
| 28>   C   -1.23124720962662     -0.71176371609471     -0.00023763581900
| 29>   C   0.01359273097520     -1.40654093237051     -0.00016097171165
| 30>   H   3.39815608454313     -3.32294847346625      0.00005390672498
| 31>   H   1.28121152702388     -4.57152648014220     -0.00000734557412
| 32>   H   -1.17420741155428     -4.60677704363004     -0.00012152878190
| 33>   H   -3.32153525568072     -3.41384789533623     -0.00025347088516
| 34>   H   -4.58974390880012     -1.33370639611801     -0.00036609996964
| 35>   H   -4.67159769511159      1.13478572432735     -0.00044430770784
| 36>   H   1.23110317529550      4.65127592066200     -0.00029523630269
| 37>   H   3.36837678237072      3.40723854080834     -0.00016153332102
| 38>   *
| 39>                             ****END OF INPUT****
================================================================================

                       *****************************
                       * Geometry Optimization Run *
                       *****************************

Geometry optimization settings:
Update method            Update   .... BFGS
Choice of coordinates    CoordSys .... Z-matrix Internals
Initial Hessian          InHess   .... Almoef's Model

Convergence Tolerances:
Energy Change            TolE     ....  5.0000e-06 Eh
Max. Gradient            TolMAXG  ....  3.0000e-04 Eh/bohr
RMS Gradient             TolRMSG  ....  1.0000e-04 Eh/bohr
Max. Displacement        TolMAXD  ....  4.0000e-03 bohr
RMS Displacement         TolRMSD  ....  2.0000e-03 bohr
Strict Convergence                ....  False
------------------------------------------------------------------------------
                        ORCA OPTIMIZATION COORDINATE SETUP
------------------------------------------------------------------------------

The optimization will be done in new redundant internal coordinates
Making redundant internal coordinates   ...  (new redundants) done
Evaluating the initial hessian          ...  (Almloef) done
Evaluating the coordinates              ...  done
Calculating the B-matrix                .... done
Calculating the G-matrix                .... done
Diagonalizing the G-matrix              .... done
The first mode is                       ....  118
The number of degrees of freedom        ....   90

    -----------------------------------------------------------------
                    Redundant Internal Coordinates


    -----------------------------------------------------------------
         Definition                    Initial Value    Approx d2E/dq
    -----------------------------------------------------------------
      1. B(C   1,C   0)                  1.3626         0.691010   
      2. B(C   2,C   1)                  1.4167         0.566514   
      3. B(C   3,C   2)                  1.4209         0.557780   
      4. B(C   4,C   3)                  1.3588         0.700553   
      5. B(C   5,C   4)                  1.4219         0.555788   
      6. B(C   6,C   5)                  1.4151         0.569767   
      7. B(C   7,C   6)                  1.3648         0.685366   
      8. B(C   8,C   7)                  1.4086         0.583474   
      9. B(C   9,C   8)                  1.4068         0.587459   
     10. B(C  10,C   9)                  1.2226         1.155639   
     11. B(C  11,C  10)                  1.4066         0.587847   
     12. B(C  12,C  11)                  1.4088         0.583129   
     13. B(C  13,C  12)                  1.3647         0.685632   
     14. B(C  14,C  13)                  1.4142         0.571634   
     15. B(C  15,C  14)                  1.4041         0.593338   
     16. B(C  16,C  15)                  1.3412         0.747387   
     17. B(C  17,C  16)                  1.4300         0.539492   
     18. B(C  17,C   0)                  1.4167         0.566465   
     19. B(C  18,C  17)                  1.4099         0.580679   
     20. B(C  19,C  18)                  1.4272         0.544910   
     21. B(C  19,C  14)                  1.4168         0.566184   
     22. B(C  20,C  19)                  1.4214         0.556759   
     23. B(C  20,C  11)                  1.4305         0.538329   
     24. B(C  21,C  20)                  1.4395         0.520888   
     25. B(C  21,C   8)                  1.4298         0.539716   
     26. B(C  22,C  21)                  1.4222         0.555128   
     27. B(C  22,C   5)                  1.4117         0.576948   
     28. B(C  23,C  22)                  1.4256         0.548198   
     29. B(C  23,C  18)                  1.4210         0.557578   
     30. B(C  23,C   2)                  1.4083         0.584097   
     31. B(H  24,C   0)                  1.0833         0.369111   
     32. B(H  25,C   1)                  1.0835         0.368784   
     33. B(H  26,C   3)                  1.0834         0.368955   
     34. B(H  27,C   4)                  1.0834         0.368971   
     35. B(H  28,C   6)                  1.0834         0.368950   
     36. B(H  29,C   7)                  1.0814         0.371623   
     37. B(H  30,C  12)                  1.0813         0.371737   
     38. B(H  31,C  13)                  1.0822         0.370548   
     39. A(C   1,C   0,H  24)          120.4153         0.360984   
     40. A(C   1,C   0,C  17)          120.9159         0.435485   
     41. A(C  17,C   0,H  24)          118.6688         0.349020   
     42. A(C   2,C   1,H  25)          118.5738         0.348973   
     43. A(C   0,C   1,C   2)          121.1226         0.435492   
     44. A(C   0,C   1,H  25)          120.3035         0.360929   
     45. A(C   1,C   2,C   3)          121.6951         0.419095   
     46. A(C   3,C   2,C  23)          119.2219         0.421386   
     47. A(C   1,C   2,C  23)          119.0830         0.422557   
     48. A(C   2,C   3,H  26)          118.5449         0.348088   
     49. A(C   2,C   3,C   4)          121.0132         0.435349   
     50. A(C   4,C   3,H  26)          120.4420         0.361803   
     51. A(C   5,C   4,H  27)          118.4717         0.347880   
     52. A(C   3,C   4,C   5)          121.1005         0.435069   
     53. A(C   3,C   4,H  27)          120.4278         0.361806   
     54. A(C   4,C   5,C  22)          119.1438         0.420193   
     55. A(C   4,C   5,C   6)          121.1925         0.419255   
     56. A(C   6,C   5,C  22)          119.6637         0.422060   
     57. A(C   5,C   6,C   7)          121.2926         0.435298   
     58. A(C   5,C   6,H  28)          118.4714         0.349337   
     59. A(C   7,C   6,H  28)          120.2360         0.360452   
     60. A(C   6,C   7,C   8)          119.9712         0.437166   
     61. A(C   8,C   7,H  29)          118.8753         0.351169   
     62. A(C   6,C   7,H  29)          121.1535         0.360896   
     63. A(C   9,C   8,C  21)          109.3811         0.419348   
     64. A(C   7,C   8,C  21)          120.8898         0.418839   
     65. A(C   7,C   8,C   9)          129.7291         0.425228   
     66. A(C   8,C   9,C  10)          128.4345         0.481474   
     67. A(C   9,C  10,C  11)          128.2133         0.481533   
     68. A(C  12,C  11,C  20)          121.0413         0.418603   
     69. A(C  10,C  11,C  20)          109.4086         0.419205   
     70. A(C  10,C  11,C  12)          129.5501         0.425233   
     71. A(C  11,C  12,H  30)          118.8326         0.351152   
     72. A(C  11,C  12,C  13)          120.2505         0.437150   
     73. A(C  13,C  12,H  30)          120.9169         0.360939   
     74. A(C  12,C  13,H  31)          120.7095         0.360742   
     75. A(C  12,C  13,C  14)          120.6802         0.435585   
     76. A(C  14,C  13,H  31)          118.6103         0.349785   
     77. A(C  13,C  14,C  15)          123.6652         0.424427   
     78. A(C  15,C  14,C  19)          116.0467         0.423700   
     79. A(C  13,C  14,C  19)          120.2880         0.420889   
     80. A(C  14,C  15,C  16)          126.6446         0.445410   
     81. A(C  15,C  16,C  17)          117.7253         0.437817   
     82. A(C  16,C  17,C  18)          119.2401         0.418450   
     83. A(C   0,C  17,C  18)          119.2278         0.422108   
     84. A(C   0,C  17,C  16)          121.5322         0.416607   
     85. A(C  17,C  18,C  19)          120.5318         0.419196   
     86. A(C  19,C  18,C  23)          119.7442         0.416176   
     87. A(C  17,C  18,C  23)          119.7240         0.420918   
     88. A(C  18,C  19,C  20)          120.4874         0.416067   
     89. A(C  14,C  19,C  20)          119.7011         0.418914   
     90. A(C  14,C  19,C  18)          119.8115         0.417312   
     91. A(C  11,C  20,C  19)          118.0389         0.415169   
     92. A(C  19,C  20,C  21)          119.6322         0.412746   
     93. A(C  11,C  20,C  21)          122.3290         0.410289   
     94. A(C  20,C  21,C  22)          119.6645         0.412531   
     95. A(C   8,C  21,C  22)          118.1019         0.415142   
     96. A(C   8,C  21,C  20)          122.2336         0.410476   
     97. A(C  21,C  22,C  23)          120.2735         0.416295   
     98. A(C   5,C  22,C  23)          119.6457         0.419164   
     99. A(C   5,C  22,C  21)          120.0808         0.420104   
    100. A(C  18,C  23,C  22)          120.1982         0.416622   
    101. A(C   2,C  23,C  22)          119.8751         0.420085   
    102. A(C   2,C  23,C  18)          119.9267         0.421359   
    103. D(C   2,C   1,C   0,C  17)      0.0001         0.033558   
    104. D(H  25,C   1,C   0,H  24)     -0.0001         0.033558   
    105. D(C   2,C   1,C   0,H  24)    179.9998         0.033558   
    106. D(H  25,C   1,C   0,C  17)   -179.9998         0.033558   
    107. D(C   3,C   2,C   1,H  25)      0.0001         0.022004   
    108. D(C   3,C   2,C   1,C   0)   -179.9998         0.022004   
    109. D(C  23,C   2,C   1,H  25)    179.9997         0.022004   
    110. D(C  23,C   2,C   1,C   0)     -0.0001         0.022004   
    111. D(H  26,C   3,C   2,C  23)    179.9999         0.021305   
    112. D(H  26,C   3,C   2,C   1)     -0.0005         0.021305   
    113. D(C   4,C   3,C   2,C   1)   -179.9998         0.021305   
    114. D(C   4,C   3,C   2,C  23)      0.0005         0.021305   
    115. D(H  27,C   4,C   3,C   2)    180.0000         0.034570   
    116. D(C   5,C   4,C   3,H  26)    179.9999         0.034570   
    117. D(H  27,C   4,C   3,H  26)      0.0006         0.034570   
    118. D(C   5,C   4,C   3,C   2)     -0.0008         0.034570   
    119. D(C  22,C   5,C   4,H  27)    180.0000         0.021147   
    120. D(C  22,C   5,C   4,C   3)      0.0007         0.021147   
    121. D(C   6,C   5,C   4,C   3)   -179.9997         0.021147   
    122. D(C   6,C   5,C   4,H  27)     -0.0005         0.021147   
    123. D(H  28,C   6,C   5,C  22)   -180.0000         0.022268   
    124. D(H  28,C   6,C   5,C   4)      0.0005         0.022268   
    125. D(C   7,C   6,C   5,C  22)     -0.0002         0.022268   
    126. D(C   7,C   6,C   5,C   4)   -179.9997         0.022268   
    127. D(H  29,C   7,C   6,H  28)     -0.0002         0.032968   
    128. D(H  29,C   7,C   6,C   5)   -180.0000         0.032968   
    129. D(C   8,C   7,C   6,H  28)    179.9999         0.032968   
    130. D(C   8,C   7,C   6,C   5)      0.0001         0.032968   
    131. D(C  21,C   8,C   7,C   6)     -0.0002         0.023403   
    132. D(C   9,C   8,C   7,H  29)     -0.0001         0.023403   
    133. D(C   9,C   8,C   7,C   6)    179.9998         0.023403   
    134. D(C  21,C   8,C   7,H  29)    179.9999         0.023403   
    135. D(C  10,C   9,C   8,C  21)      0.0000         0.021544   
    136. D(C  10,C   9,C   8,C   7)    180.0000         0.021544   
    137. D(C  11,C  10,C   9,C   8)      0.0000         0.084926   
    138. D(C  20,C  11,C  10,C   9)      0.0000         0.021574   
    139. D(C  12,C  11,C  10,C   9)    179.9999         0.021574   
    140. D(H  30,C  12,C  11,C  20)    179.9999         0.023374   
    141. D(H  30,C  12,C  11,C  10)      0.0001         0.023374   
    142. D(C  13,C  12,C  11,C  10)   -179.9999         0.023374   
    143. D(C  13,C  12,C  11,C  20)     -0.0001         0.023374   
    144. D(H  31,C  13,C  12,H  30)     -0.0000         0.032996   
    145. D(H  31,C  13,C  12,C  11)   -180.0000         0.032996   
    146. D(C  14,C  13,C  12,C  11)      0.0002         0.032996   
    147. D(C  14,C  13,C  12,H  30)   -179.9999         0.032996   
    148. D(C  19,C  14,C  13,H  31)    180.0000         0.022421   
    149. D(C  19,C  14,C  13,C  12)     -0.0002         0.022421   
    150. D(C  15,C  14,C  13,C  12)    179.9999         0.022421   
    151. D(C  15,C  14,C  13,H  31)      0.0001         0.022421   
    152. D(C  16,C  15,C  14,C  19)     -0.0001         0.021996   
    153. D(C  16,C  15,C  14,C  13)    179.9998         0.021996   
    154. D(C  17,C  16,C  15,C  14)      0.0001         0.031904   
    155. D(C  18,C  17,C  16,C  15)      0.0001         0.018071   
    156. D(C   0,C  17,C  16,C  15)    179.9997         0.018071   
    157. D(C  18,C  17,C   0,H  24)   -179.9999         0.022000   
    158. D(C  18,C  17,C   0,C   1)     -0.0001         0.022000   
    159. D(C  16,C  17,C   0,H  24)      0.0005         0.022000   
    160. D(C  16,C  17,C   0,C   1)   -179.9998         0.022000   
    161. D(C  23,C  18,C  17,C  16)    179.9999         0.023169   
    162. D(C  23,C  18,C  17,C   0)      0.0002         0.023169   
    163. D(C  19,C  18,C  17,C  16)     -0.0003         0.023169   
    164. D(C  19,C  18,C  17,C   0)   -180.0000         0.023169   
    165. D(C  18,C  19,C  14,C  13)   -180.0000         0.021978   
    166. D(C  20,C  19,C  18,C  23)      0.0000         0.020300   
    167. D(C  20,C  19,C  18,C  17)   -179.9998         0.020300   
    168. D(C  14,C  19,C  18,C  23)   -179.9999         0.020300   
    169. D(C  14,C  19,C  18,C  17)      0.0003         0.020300   
    170. D(C  20,C  19,C  14,C  15)    180.0000         0.021978   
    171. D(C  20,C  19,C  14,C  13)      0.0001         0.021978   
    172. D(C  18,C  19,C  14,C  15)     -0.0001         0.021978   
    173. D(C  21,C  20,C  19,C  18)      0.0001         0.021224   
    174. D(C  21,C  20,C  19,C  14)    180.0000         0.021224   
    175. D(C  11,C  20,C  19,C  18)   -179.9999         0.021224   
    176. D(C  11,C  20,C  19,C  14)      0.0000         0.021224   
    177. D(C  21,C  20,C  11,C  12)   -180.0000         0.019798   
    178. D(C  21,C  20,C  11,C  10)     -0.0001         0.019798   
    179. D(C  19,C  20,C  11,C  12)     -0.0000         0.019798   
    180. D(C  19,C  20,C  11,C  10)    179.9999         0.019798   
    181. D(C  22,C  21,C  20,C  19)     -0.0002         0.018505   
    182. D(C  22,C  21,C  20,C  11)    179.9997         0.018505   
    183. D(C   8,C  21,C  20,C  19)   -179.9998         0.018505   
    184. D(C   8,C  21,C  20,C  11)      0.0002         0.018505   
    185. D(C  22,C  21,C   8,C   9)   -179.9997         0.019903   
    186. D(C  22,C  21,C   8,C   7)      0.0003         0.019903   
    187. D(C  20,C  21,C   8,C   9)     -0.0001         0.019903   
    188. D(C  20,C  21,C   8,C   7)    179.9999         0.019903   
    189. D(C  23,C  22,C  21,C  20)      0.0003         0.021095   
    190. D(C  23,C  22,C  21,C   8)    179.9999         0.021095   
    191. D(C   5,C  22,C  21,C  20)   -179.9999         0.021095   
    192. D(C   5,C  22,C  21,C   8)     -0.0004         0.021095   
    193. D(C  23,C  22,C   5,C   6)   -180.0000         0.022858   
    194. D(C  23,C  22,C   5,C   4)     -0.0004         0.022858   
    195. D(C  21,C  22,C   5,C   6)      0.0003         0.022858   
    196. D(C  21,C  22,C   5,C   4)    179.9999         0.022858   
    197. D(C  18,C  23,C  22,C  21)     -0.0002         0.020554   
    198. D(C  18,C  23,C  22,C   5)   -180.0000         0.020554   
    199. D(C   2,C  23,C  22,C  21)    179.9999         0.020554   
    200. D(C   2,C  23,C  22,C   5)      0.0002         0.020554   
    201. D(C  22,C  23,C  18,C  19)      0.0001         0.021289   
    202. D(C  22,C  23,C  18,C  17)    179.9999         0.021289   
    203. D(C   2,C  23,C  18,C  19)    179.9999         0.021289   
    204. D(C   2,C  23,C  18,C  17)     -0.0003         0.021289   
    205. D(C  22,C  23,C   2,C   3)     -0.0003         0.023455   
    206. D(C  22,C  23,C   2,C   1)   -179.9999         0.023455   
    207. D(C  18,C  23,C   2,C   3)    179.9999         0.023455   
    208. D(C  18,C  23,C   2,C   1)      0.0003         0.023455   
    -----------------------------------------------------------------

Number of atoms                         .... 32
Number of degrees of freedom            .... 208

         *************************************************************
         *                GEOMETRY OPTIMIZATION CYCLE   1            *
         *************************************************************
---------------------------------
CARTESIAN COORDINATES (ANGSTROEM)
---------------------------------
  C      2.451460   -2.796408   -0.000009
  C      1.277450   -3.488020   -0.000042
  C      0.030996   -2.814769   -0.000120
  C     -1.200394   -3.523706   -0.000151
  C     -2.388214   -2.863744   -0.000230
  C     -2.438916   -1.442789   -0.000268
  C     -3.674801   -0.753521   -0.000344
  C     -3.725852    0.610337   -0.000386
  C     -2.532767    1.359187   -0.000356
  C     -2.346364    2.753557   -0.000393
  C     -1.296426    3.379949   -0.000365
  C      0.017038    2.876639   -0.000291
  C      1.243385    3.570003   -0.000260
  C      2.422074    2.882168   -0.000186
  C      2.432295    1.467998   -0.000144
  C      3.606478    0.698137   -0.000069
  C      3.685869   -0.640743   -0.000021
  C      2.461683   -1.379766   -0.000050
  C      1.236254   -0.682459   -0.000129
  C      1.214070    0.744608   -0.000173
  C     -0.021855    1.446620   -0.000248
  C     -1.258711    0.710154   -0.000278
  C     -1.231247   -0.711764   -0.000238
  C      0.013593   -1.406541   -0.000161
  H      3.398156   -3.322948    0.000054
  H      1.281212   -4.571526   -0.000007
  H     -1.174207   -4.606777   -0.000122
  H     -3.321535   -3.413848   -0.000253
  H     -4.589744   -1.333706   -0.000366
  H     -4.671598    1.134786   -0.000444
  H      1.231103    4.651276   -0.000295
  H      3.368377    3.407239   -0.000162

----------------------------
CARTESIAN COORDINATES (A.U.)
----------------------------
  NO LB      ZA    FRAG     MASS         X           Y           Z
   0 C     6.0000    0    12.011    4.632588   -5.284446   -0.000017
   1 C     6.0000    0    12.011    2.414031   -6.591402   -0.000080
   2 C     6.0000    0    12.011    0.058574   -5.319143   -0.000228
   3 C     6.0000    0    12.011   -2.268417   -6.658840   -0.000286
   4 C     6.0000    0    12.011   -4.513070   -5.411693   -0.000435
   5 C     6.0000    0    12.011   -4.608884   -2.726477   -0.000507
   6 C     6.0000    0    12.011   -6.944367   -1.423949   -0.000651
   7 C     6.0000    0    12.011   -7.040840    1.153370   -0.000730
   8 C     6.0000    0    12.011   -4.786236    2.568492   -0.000674
   9 C     6.0000    0    12.011   -4.433986    5.203468   -0.000742
  10 C     6.0000    0    12.011   -2.449889    6.387178   -0.000690
  11 C     6.0000    0    12.011    0.032197    5.436060   -0.000549
  12 C     6.0000    0    12.011    2.349657    6.746329   -0.000491
  13 C     6.0000    0    12.011    4.577057    5.446509   -0.000352
  14 C     6.0000    0    12.011    4.596371    2.774115   -0.000271
  15 C     6.0000    0    12.011    6.815255    1.319287   -0.000130
  16 C     6.0000    0    12.011    6.965283   -1.210829   -0.000039
  17 C     6.0000    0    12.011    4.651906   -2.607379   -0.000095
  18 C     6.0000    0    12.011    2.336181   -1.289661   -0.000244
  19 C     6.0000    0    12.011    2.294260    1.407106   -0.000327
  20 C     6.0000    0    12.011   -0.041301    2.733716   -0.000468
  21 C     6.0000    0    12.011   -2.378620    1.341996   -0.000524
  22 C     6.0000    0    12.011   -2.326720   -1.345038   -0.000449
  23 C     6.0000    0    12.011    0.025687   -2.657977   -0.000304
  24 H     1.0000    0     1.008    6.421584   -6.279463    0.000102
  25 H     1.0000    0     1.008    2.421139   -8.638933   -0.000014
  26 H     1.0000    0     1.008   -2.218930   -8.705547   -0.000230
  27 H     1.0000    0     1.008   -6.276792   -6.451238   -0.000479
  28 H     1.0000    0     1.008   -8.673359   -2.520340   -0.000692
  29 H     1.0000    0     1.008   -8.828040    2.144434   -0.000840
  30 H     1.0000    0     1.008    2.326448    8.789638   -0.000558
  31 H     1.0000    0     1.008    6.365310    6.438748   -0.000305

--------------------------------
INTERNAL COORDINATES (ANGSTROEM)
--------------------------------
 C      0   0   0     0.000000000000     0.00000000     0.00000000
 C      1   0   0     1.362580498775     0.00000000     0.00000000
 C      2   1   0     1.416655934666   121.12264253     0.00000000
 C      3   2   1     1.420885346670   121.69513503   180.00022124
 C      4   3   2     1.358847014187   121.01317335   180.00018427
 C      5   4   3     1.421859481551   121.10045502     0.00000000
 C      6   5   4     1.415097425121   121.19250807   180.00026943
 C      7   6   5     1.364813297881   121.29260534   180.00026462
 C      8   7   6     1.408626446268   119.97115081     0.00000000
 C      9   8   7     1.406773511548   129.72909555   179.99980232
 C     10   9   8     1.222595283799   128.43454261   180.00000000
 C     11  10   9     1.406593959718   128.21326083     0.00000000
 C     12  11  10     1.408787067721   129.55013068   179.99986450
 C     13  12  11     1.364707358922   120.25052323   180.00005708
 C     14  13  12     1.414206872509   120.68017108     0.00000000
 C     15  14  13     1.404063048838   123.66521972   179.99994105
 C     16  15  14     1.341231620387   126.64461433   179.99975669
 C      1   2   3     1.416679633703   120.91586424     0.00000000
 C     18   1   2     1.409933346588   119.22776036     0.00000000
 C     15  14  13     1.416814669151   120.28804939     0.00000000
 C     20  15  14     1.421384130621   119.70107495     0.00000000
 C      9   8   7     1.429846980887   120.88983635     0.00000000
 C      6   5   4     1.411688140325   119.14377160     0.00000000
 C      3   2   1     1.408335764783   119.08298798     0.00000000
 H      1   2   3     1.083271778508   120.41532530   179.99980974
 H      2   1   3     1.083513203240   120.30352944   180.00012891
 H      4   3   2     1.083387154056   118.54487340     0.00000000
 H      5   4   3     1.083375428092   120.42782699   179.99997634
 H      7   6   5     1.083390790960   118.47138055     0.00000000
 H      8   7   6     1.081425741144   121.15353841   180.00001821
 H     13  12  11     1.081342248048   118.83262332     0.00000000
 H     14  13  12     1.082214099480   120.70954125   180.00004611

---------------------------
INTERNAL COORDINATES (A.U.)
---------------------------
 C      0   0   0     0.000000000000     0.00000000     0.00000000
 C      1   0   0     2.574903978107     0.00000000     0.00000000
 C      2   1   0     2.677091742514   121.12264253     0.00000000
 C      3   2   1     2.685084172909   121.69513503   180.00022124
 C      4   3   2     2.567848714711   121.01317335   180.00018427
 C      5   4   3     2.686925021050   121.10045502     0.00000000
 C      6   5   4     2.674146586296   121.19250807   180.00026943
 C      7   6   5     2.579123356928   121.29260534   180.00026462
 C      8   7   6     2.661918208446   119.97115081     0.00000000
 C      9   8   7     2.658416669281   129.72909555   179.99980232
 C     10   9   8     2.310370259003   128.43454261   180.00000000
 C     11  10   9     2.658077365495   128.21326083     0.00000000
 C     12  11  10     2.662221739003   129.55013068   179.99986450
 C     13  12  11     2.578923161310   120.25052323   180.00005708
 C     14  13  12     2.672463685752   120.68017108     0.00000000
 C     15  14  13     2.653294637062   123.66521972   179.99994105
 C     16  15  14     2.534560444687   126.64461433   179.99975669
 C      1   2   3     2.677136527203   120.91586424     0.00000000
 C     18   1   2     2.664387892134   119.22776036     0.00000000
 C     15  14  13     2.677391707217   120.28804939     0.00000000
 C     20  15  14     2.686026737975   119.70107495     0.00000000
 C      9   8   7     2.702019207291   120.88983635     0.00000000
 C      6   5   4     2.667703971719   119.14377160     0.00000000
 C      3   2   1     2.661368900047   119.08298798     0.00000000
 H      1   2   3     2.047086989987   120.41532530   179.99980974
 H      2   1   3     2.047543216612   120.30352944   180.00012891
 H      4   3   2     2.047305018173   118.54487340     0.00000000
 H      5   4   3     2.047282859314   120.42782699   179.99997634
 H      7   6   5     2.047311890926   118.47138055     0.00000000
 H      8   7   6     2.043598484936   121.15353841   180.00001821
 H     13  12  11     2.043440705849   118.83262332     0.00000000
 H     14  13  12     2.045088266286   120.70954125   180.00004611

---------------------
BASIS SET INFORMATION
---------------------
There are 2 groups of distinct atoms

 Group   1 Type C   : 11s5p1d contracted to 4s3p1d pattern {6311/311/1}
 Group   2 Type H   : 5s1p contracted to 3s1p pattern {311/1}

Atom   0C    basis set group =>   1
Atom   1C    basis set group =>   1
Atom   2C    basis set group =>   1
Atom   3C    basis set group =>   1
Atom   4C    basis set group =>   1
Atom   5C    basis set group =>   1
Atom   6C    basis set group =>   1
Atom   7C    basis set group =>   1
Atom   8C    basis set group =>   1
Atom   9C    basis set group =>   1
Atom  10C    basis set group =>   1
Atom  11C    basis set group =>   1
Atom  12C    basis set group =>   1
Atom  13C    basis set group =>   1
Atom  14C    basis set group =>   1
Atom  15C    basis set group =>   1
Atom  16C    basis set group =>   1
Atom  17C    basis set group =>   1
Atom  18C    basis set group =>   1
Atom  19C    basis set group =>   1
Atom  20C    basis set group =>   1
Atom  21C    basis set group =>   1
Atom  22C    basis set group =>   1
Atom  23C    basis set group =>   1
Atom  24H    basis set group =>   2
Atom  25H    basis set group =>   2
Atom  26H    basis set group =>   2
Atom  27H    basis set group =>   2
Atom  28H    basis set group =>   2
Atom  29H    basis set group =>   2
Atom  30H    basis set group =>   2
Atom  31H    basis set group =>   2
---------------------------------
AUXILIARY/J BASIS SET INFORMATION
---------------------------------
There are 2 groups of distinct atoms

 Group   1 Type C   : 12s5p4d2f1g contracted to 6s4p3d1f1g pattern {711111/2111/211/2/1}
 Group   2 Type H   : 5s2p1d contracted to 3s1p1d pattern {311/2/1}

Atom   0C    basis set group =>   1
Atom   1C    basis set group =>   1
Atom   2C    basis set group =>   1
Atom   3C    basis set group =>   1
Atom   4C    basis set group =>   1
Atom   5C    basis set group =>   1
Atom   6C    basis set group =>   1
Atom   7C    basis set group =>   1
Atom   8C    basis set group =>   1
Atom   9C    basis set group =>   1
Atom  10C    basis set group =>   1
Atom  11C    basis set group =>   1
Atom  12C    basis set group =>   1
Atom  13C    basis set group =>   1
Atom  14C    basis set group =>   1
Atom  15C    basis set group =>   1
Atom  16C    basis set group =>   1
Atom  17C    basis set group =>   1
Atom  18C    basis set group =>   1
Atom  19C    basis set group =>   1
Atom  20C    basis set group =>   1
Atom  21C    basis set group =>   1
Atom  22C    basis set group =>   1
Atom  23C    basis set group =>   1
Atom  24H    basis set group =>   2
Atom  25H    basis set group =>   2
Atom  26H    basis set group =>   2
Atom  27H    basis set group =>   2
Atom  28H    basis set group =>   2
Atom  29H    basis set group =>   2
Atom  30H    basis set group =>   2
Atom  31H    basis set group =>   2


           ************************************************************
           *        Program running with 4 parallel MPI-processes     *
           *              working on a common directory               *
           ************************************************************
------------------------------------------------------------------------------
                           ORCA GTO INTEGRAL CALCULATION
                           -- RI-GTO INTEGRALS CHOSEN --
------------------------------------------------------------------------------
------------------------------------------------------------------------------
                   ___                                                        
                  /   \      - P O W E R E D   B Y -                         
                 /     \                                                     
                 |  |  |   _    _      __       _____    __    __             
                 |  |  |  | |  | |    /  \     |  _  \  |  |  /  |          
                  \  \/   | |  | |   /    \    | | | |  |  | /  /          
                 / \  \   | |__| |  /  /\  \   | |_| |  |  |/  /          
                |  |  |   |  __  | /  /__\  \  |    /   |      \           
                |  |  |   | |  | | |   __   |  |    \   |  |\   \          
                \     /   | |  | | |  |  |  |  | |\  \  |  | \   \       
                 \___/    |_|  |_| |__|  |__|  |_| \__\ |__|  \__/        
                                                                              
                      - O R C A' S   B I G   F R I E N D -                    
                                      &                                       
                       - I N T E G R A L  F E E D E R -                       
                                                                              
 v1 FN, 2020, v2 2021                                                         
------------------------------------------------------------------------------


Reading SHARK input file eight_seven_eleven_twelve_opt.SHARKINP.tmp ... ok
----------------------
SHARK INTEGRAL PACKAGE
----------------------

Number of atoms                             ...     32
Number of basis functions                   ...    480
Number of shells                            ...    224
Maximum angular momentum                    ...      2
Integral batch strategy                     ... SHARK/LIBINT Hybrid
RI-J (if used) integral strategy            ... SPLIT-RIJ (Revised 2003 algorithm where possible)
Printlevel                                  ...      1
Contraction scheme used                     ... SEGMENTED contraction
Coulomb Range Separation                    ... NOT USED
Exchange Range Separation                   ... NOT USED
Finite Nucleus Model                        ... NOT USED
Auxiliary Coulomb fitting basis             ... AVAILABLE
   # of basis functions in Aux-J            ...   1264
   # of shells in Aux-J                     ...    400
   Maximum angular momentum in Aux-J        ...      4
Auxiliary J/K fitting basis                 ... NOT available
Auxiliary Correlation fitting basis         ... NOT available
Auxiliary 'external' fitting basis          ... NOT available
Integral threshold                          ...     2.500000e-11
Primitive cut-off                           ...     2.500000e-12
Primitive pair pre-selection threshold      ...     2.500000e-12

Calculating pre-screening integrals         ... done (  0.1 sec) Dimension = 224
Organizing shell pair data                  ... done (  0.1 sec)
Shell pair information
Total number of shell pairs                 ...     25200
Shell pairs after pre-screening             ...     18329
Total number of primitive shell pairs       ...    104724
Primitive shell pairs kept                  ...     45662
          la=0 lb=0:   4950 shell pairs
          la=1 lb=0:   7117 shell pairs
          la=1 lb=1:   2541 shell pairs
          la=2 lb=0:   2000 shell pairs
          la=2 lb=1:   1484 shell pairs
          la=2 lb=2:    237 shell pairs

Calculating one electron integrals          ... done (  0.1 sec)
Calculating RI/J V-Matrix + Cholesky decomp.... done (  0.3 sec)
Calculating Nuclear repulsion               ... done (  0.0 sec) ENN=   1764.072348241043 Eh

SHARK setup successfully completed in   1.0 seconds

Maximum memory used throughout the entire GTOINT-calculation: 31.4 MB


           ************************************************************
           *        Program running with 4 parallel MPI-processes     *
           *              working on a common directory               *
           ************************************************************
-------------------------------------------------------------------------------
                                 ORCA SCF
-------------------------------------------------------------------------------

------------
SCF SETTINGS
------------
Hamiltonian:
 Density Functional     Method          .... DFT(GTOs)
 Exchange Functional    Exchange        .... B88
   X-Alpha parameter    XAlpha          ....  0.666667
   Becke's b parameter  XBeta           ....  0.004200
 Correlation Functional Correlation     .... LYP
 LDA part of GGA corr.  LDAOpt          .... VWN-5
 Gradients option       PostSCFGGA      .... off
 Hybrid DFT is turned on
   Fraction HF Exchange ScalHFX         ....  0.200000
   Scaling of DF-GGA-X  ScalDFX         ....  0.720000
   Scaling of DF-GGA-C  ScalDFC         ....  0.810000
   Scaling of DF-LDA-C  ScalLDAC        ....  1.000000
   Perturbative correction              ....  0.000000
   Density functional embedding theory  .... OFF
   NL short-range parameter             ....  4.800000
 RI-approximation to the Coulomb term is turned on
   Number of AuxJ basis functions       .... 1264
   RIJ-COSX (HFX calculated with COS-X)).... on


General Settings:
 Integral files         IntName         .... eight_seven_eleven_twelve_opt
 Hartree-Fock type      HFTyp           .... RHF
 Total Charge           Charge          ....    0
 Multiplicity           Mult            ....    1
 Number of Electrons    NEL             ....  152
 Basis Dimension        Dim             ....  480
 Nuclear Repulsion      ENuc            ....   1764.0723482410 Eh

Convergence Acceleration:
 DIIS                   CNVDIIS         .... on
   Start iteration      DIISMaxIt       ....    12
   Startup error        DIISStart       ....  0.200000
   # of expansion vecs  DIISMaxEq       ....     5
   Bias factor          DIISBfac        ....   1.050
   Max. coefficient     DIISMaxC        ....  10.000
 Trust-Rad. Augm. Hess. CNVTRAH         .... auto
   Auto Start mean grad. ratio tolernc. ....  1.125000
   Auto Start start iteration           ....    20
   Auto Start num. interpolation iter.  ....    10
   Max. Number of Micro iterations      ....    16
   Max. Number of Macro iterations      .... Maxiter - #DIIS iter
   Number of Davidson start vectors     ....     2
   Converg. threshold I  (grad. norm)   ....   1.000e-05
   Converg. threshold II (energy diff.) ....   1.000e-08
   Grad. Scal. Fac. for Micro threshold ....   0.100
   Minimum threshold for Micro iter.    ....   0.010
   NR start threshold (gradient norm)   ....   0.001
   Initial trust radius                 ....   0.400
   Minimum AH scaling param. (alpha)    ....   1.000
   Maximum AH scaling param. (alpha)    .... 1000.000
   Orbital update algorithm             .... Taylor
   White noise on init. David. guess    .... on
   Maximum white noise                  ....   0.010
   Quad. conv. algorithm                .... NR
 SOSCF                  CNVSOSCF        .... on
   Start iteration      SOSCFMaxIt      ....   150
   Startup grad/error   SOSCFStart      ....  0.003300
 Level Shifting         CNVShift        .... on
   Level shift para.    LevelShift      ....    0.2500
   Turn off err/grad.   ShiftErr        ....    0.0010
 Zerner damping         CNVZerner       .... off
 Static damping         CNVDamp         .... on
   Fraction old density DampFac         ....    0.7000
   Max. Damping (<1)    DampMax         ....    0.9800
   Min. Damping (>=0)   DampMin         ....    0.0000
   Turn off err/grad.   DampErr         ....    0.1000
 Fernandez-Rico         CNVRico         .... off

SCF Procedure:
 Maximum # iterations   MaxIter         ....   125
 SCF integral mode      SCFMode         .... Direct
   Integral package                     .... SHARK and LIBINT hybrid scheme
 Reset frequency        DirectResetFreq ....    20
 Integral Threshold     Thresh          ....  2.500e-11 Eh
 Primitive CutOff       TCut            ....  2.500e-12 Eh

Convergence Tolerance:
 Convergence Check Mode ConvCheckMode   .... Total+1el-Energy
 Convergence forced     ConvForced      .... 0
 Energy Change          TolE            ....  1.000e-08 Eh
 1-El. energy change                    ....  1.000e-05 Eh
 Orbital Gradient       TolG            ....  1.000e-05
 Orbital Rotation angle TolX            ....  1.000e-05
 DIIS Error             TolErr          ....  5.000e-07


Diagonalization of the overlap matrix:
Smallest eigenvalue                        ... 1.796e-05
Time for diagonalization                   ...    0.185 sec
Threshold for overlap eigenvalues          ... 1.000e-08
Number of eigenvalues below threshold      ... 0
Time for construction of square roots      ...    0.065 sec
Total time needed                          ...    0.252 sec

Time for model grid setup =    0.430 sec

------------------------------
INITIAL GUESS: MODEL POTENTIAL
------------------------------
Loading Hartree-Fock densities                     ... done
Calculating cut-offs                               ... done
Initializing the effective Hamiltonian             ... done
Setting up the integral package (SHARK)            ... done
Starting the Coulomb interaction                   ... done (   2.3 sec)
Reading the grid                                   ... done
Mapping shells                                     ... done
Starting the XC term evaluation                    ... done (   0.4 sec)
  promolecular density results
     # of electrons  =    151.982261610
     EX              =   -125.840412611
     EC              =     -5.209003059
     EX+EC           =   -131.049415670
Transforming the Hamiltonian                       ... done (   0.0 sec)
Diagonalizing the Hamiltonian                      ... done (   0.0 sec)
Back transforming the eigenvectors                 ... done (   0.0 sec)
Now organizing SCF variables                       ... done
                      ------------------
                      INITIAL GUESS DONE (   3.2 sec)
                      ------------------
-------------------
DFT GRID GENERATION
-------------------

General Integration Accuracy     IntAcc      ... 4.388
Radial Grid Type                 RadialGrid  ... OptM3 with GC (2021)
Angular Grid (max. ang.)         AngularGrid ... 4 (Lebedev-302)
Angular grid pruning method      GridPruning ... 4 (adaptive)
Weight generation scheme         WeightScheme... Becke
Basis function cutoff            BFCut       ... 1.0000e-11
Integration weight cutoff        WCut        ... 1.0000e-14
Angular grids for H and He will be reduced by one unit
Partially contracted basis set               ... off
Rotationally invariant grid construction     ... off

Total number of grid points                  ...   167927
Total number of batches                      ...     2638
Average number of points per batch           ...       63
Average number of grid points per atom       ...     5248
Time for grid setup =    1.489 sec

--------------------
COSX GRID GENERATION
--------------------

GRIDX 1
-------
General Integration Accuracy     IntAcc      ... 3.816
Radial Grid Type                 RadialGrid  ... OptM3 with GC (2021)
Angular Grid (max. ang.)         AngularGrid ... 1 (Lebedev-50)
Angular grid pruning method      GridPruning ... 4 (adaptive)
Weight generation scheme         WeightScheme... Becke
Basis function cutoff            BFCut       ... 1.0000e-11
Integration weight cutoff        WCut        ... 1.0000e-14
Angular grids for H and He will be reduced by one unit
Partially contracted basis set               ... on
Rotationally invariant grid construction     ... off

Total number of grid points                  ...    21329
Total number of batches                      ...      348
Average number of points per batch           ...       61
Average number of grid points per atom       ...      667
UseSFitting                                  ... on

GRIDX 2
-------
General Integration Accuracy     IntAcc      ... 4.020
Radial Grid Type                 RadialGrid  ... OptM3 with GC (2021)
Angular Grid (max. ang.)         AngularGrid ... 2 (Lebedev-110)
Angular grid pruning method      GridPruning ... 4 (adaptive)
Weight generation scheme         WeightScheme... Becke
Basis function cutoff            BFCut       ... 1.0000e-11
Integration weight cutoff        WCut        ... 1.0000e-14
Angular grids for H and He will be reduced by one unit
Partially contracted basis set               ... on
Rotationally invariant grid construction     ... off

Total number of grid points                  ...    47649
Total number of batches                      ...      762
Average number of points per batch           ...       62
Average number of grid points per atom       ...     1489
UseSFitting                                  ... on

GRIDX 3
-------
General Integration Accuracy     IntAcc      ... 4.338
Radial Grid Type                 RadialGrid  ... OptM3 with GC (2021)
Angular Grid (max. ang.)         AngularGrid ... 3 (Lebedev-194)
Angular grid pruning method      GridPruning ... 4 (adaptive)
Weight generation scheme         WeightScheme... Becke
Basis function cutoff            BFCut       ... 1.0000e-11
Integration weight cutoff        WCut        ... 1.0000e-14
Angular grids for H and He will be reduced by one unit
Partially contracted basis set               ... on
Rotationally invariant grid construction     ... off

Total number of grid points                  ...   105006
Total number of batches                      ...     1656
Average number of points per batch           ...       63
Average number of grid points per atom       ...     3281
UseSFitting                                  ... on

Time for X-Grid setup             =    2.201 sec

--------------
SCF ITERATIONS
--------------
ITER       Energy         Delta-E        Max-DP      RMS-DP      [F,P]     Damp
               ***  Starting incremental Fock matrix formation  ***
  0   -918.4604818708   0.000000000000 0.05427807  0.00125057  0.1490621 0.7000
  1   -918.6185508127  -0.158068941944 0.03992620  0.00097384  0.0808282 0.7000
                               ***Turning on DIIS***
  2   -918.6958353665  -0.077284553784 0.08041894  0.00200036  0.0394945 0.0000
  3   -918.8105057852  -0.114670418669 0.02616891  0.00053432  0.0416992 0.0000
  4   -918.8339545842  -0.023448798963 0.01166216  0.00018579  0.0119376 0.0000
  5   -918.8349910057  -0.001036421575 0.00304040  0.00005897  0.0048776 0.0000
                      *** Initiating the SOSCF procedure ***
                           *** Shutting down DIIS ***
                      *** Re-Reading the Fockian *** 
                      *** Removing any level shift *** 
ITER      Energy       Delta-E        Grad      Rot      Max-DP    RMS-DP
  6   -918.83508811  -0.0000971038  0.000252  0.000252  0.001601  0.000019
               *** Restarting incremental Fock matrix formation ***
  7   -918.83516536  -0.0000772507  0.000180  0.000888  0.001449  0.000034
  8   -918.83516436   0.0000009986  0.000206  0.000620  0.000367  0.000010
  9   -918.83516802  -0.0000036604  0.000181  0.000928  0.000485  0.000010
 10   -918.83516610   0.0000019191  0.000495  0.000750  0.000323  0.000004
 11   -918.83516831  -0.0000022052  0.000044  0.000124  0.000118  0.000004
 12   -918.83516806   0.0000002489  0.000079  0.000133  0.000077  0.000002
 13   -918.83516839  -0.0000003348  0.000028  0.000126  0.000056  0.000001
 14   -918.83516837   0.0000000244  0.000073  0.000092  0.000038  0.000001
 15   -918.83516842  -0.0000000458  0.000003  0.000013  0.000026  0.000000
 16   -918.83516840   0.0000000152  0.000005  0.000009  0.000012  0.000000
                  ***Gradient check signals convergence***
              ***Rediagonalizing the Fockian in SOSCF/NRSCF***

               *****************************************************
               *                     SUCCESS                       *
               *           SCF CONVERGED AFTER  17 CYCLES          *
               *****************************************************

Old exchange energy                            =    -25.472680028 Eh
New exchange energy                            =    -25.472744173 Eh
Exchange energy change after final integration =     -0.000064145 Eh
Total energy after final integration           =   -918.835232569 Eh
Final COS-X integration done in                =    26.616 sec

----------------
TOTAL SCF ENERGY
----------------

Total Energy       :         -918.83523257 Eh          -25002.77779 eV

Components:
Nuclear Repulsion  :         1764.07234824 Eh           48002.84901 eV
Electronic Energy  :        -2682.90758081 Eh          -73005.62681 eV
One Electron Energy:        -4745.35572798 Eh         -129127.69408 eV
Two Electron Energy:         2062.44814717 Eh           56122.06728 eV
Max COSX asymmetry :            0.00000203 Eh               0.00006 eV

Virial components:
Potential Energy   :        -1834.54189500 Eh          -49920.42287 eV
Kinetic Energy     :          915.70666243 Eh           24917.64507 eV
Virial Ratio       :            2.00341656


DFT components:
N(Alpha)           :       76.000181629314 electrons
N(Beta)            :       76.000181629314 electrons
N(Total)           :      152.000363258629 electrons
E(X)               :     -101.282542146690 Eh       
E(C)               :       -6.130726361076 Eh       
E(XC)              :     -107.413268507766 Eh       
DFET-embed. en.    :        0.000000000000 Eh       

---------------
SCF CONVERGENCE
---------------

  Last Energy change         ...   -2.3107e-08  Tolerance :   1.0000e-08
  Last MAX-Density change    ...    1.6653e-15  Tolerance :   1.0000e-07
  Last RMS-Density change    ...    1.9331e-17  Tolerance :   5.0000e-09
  Last Orbital Gradient      ...    4.9997e-07  Tolerance :   1.0000e-05
  Last Orbital Rotation      ...    3.2971e-06  Tolerance :   1.0000e-05

             **** THE GBW FILE WAS UPDATED (eight_seven_eleven_twelve_opt.gbw) ****
             **** DENSITY eight_seven_eleven_twelve_opt.scfp WAS UPDATED ****
             **** ENERGY FILE WAS UPDATED (eight_seven_eleven_twelve_opt.en.tmp) ****
             **** THE GBW FILE WAS UPDATED (eight_seven_eleven_twelve_opt.gbw) ****
             **** DENSITY eight_seven_eleven_twelve_opt.scfp WAS UPDATED ****
----------------
ORBITAL ENERGIES
----------------

  NO   OCC          E(Eh)            E(eV) 
   0   2.0000     -10.218578      -278.0617 
   1   2.0000     -10.216837      -278.0143 
   2   2.0000     -10.216833      -278.0142 
   3   2.0000     -10.216093      -277.9940 
   4   2.0000     -10.210533      -277.8427 
   5   2.0000     -10.206413      -277.7306 
   6   2.0000     -10.205662      -277.7102 
   7   2.0000     -10.203685      -277.6564 
   8   2.0000     -10.202231      -277.6168 
   9   2.0000     -10.200445      -277.5682 
  10   2.0000     -10.198411      -277.5129 
  11   2.0000     -10.197249      -277.4813 
  12   2.0000     -10.194616      -277.4096 
  13   2.0000     -10.193642      -277.3831 
  14   2.0000     -10.188576      -277.2453 
  15   2.0000     -10.187693      -277.2212 
  16   2.0000     -10.187293      -277.2103 
  17   2.0000     -10.186436      -277.1870 
  18   2.0000     -10.184507      -277.1345 
  19   2.0000     -10.183635      -277.1108 
  20   2.0000     -10.183340      -277.1028 
  21   2.0000     -10.181835      -277.0618 
  22   2.0000     -10.180366      -277.0218 
  23   2.0000     -10.178256      -276.9644 
  24   2.0000      -0.926079       -25.1999 
  25   2.0000      -0.889539       -24.2056 
  26   2.0000      -0.888895       -24.1881 
  27   2.0000      -0.842193       -22.9172 
  28   2.0000      -0.838970       -22.8295 
  29   2.0000      -0.819912       -22.3109 
  30   2.0000      -0.791144       -21.5281 
  31   2.0000      -0.776261       -21.1231 
  32   2.0000      -0.759068       -20.6553 
  33   2.0000      -0.752558       -20.4781 
  34   2.0000      -0.727230       -19.7889 
  35   2.0000      -0.722407       -19.6577 
  36   2.0000      -0.651959       -17.7407 
  37   2.0000      -0.651114       -17.7177 
  38   2.0000      -0.639403       -17.3991 
  39   2.0000      -0.635288       -17.2871 
  40   2.0000      -0.631696       -17.1893 
  41   2.0000      -0.579353       -15.7650 
  42   2.0000      -0.551970       -15.0199 
  43   2.0000      -0.548499       -14.9254 
  44   2.0000      -0.540071       -14.6961 
  45   2.0000      -0.532999       -14.5036 
  46   2.0000      -0.527784       -14.3617 
  47   2.0000      -0.487960       -13.2781 
  48   2.0000      -0.482095       -13.1185 
  49   2.0000      -0.473854       -12.8942 
  50   2.0000      -0.460838       -12.5400 
  51   2.0000      -0.458650       -12.4805 
  52   2.0000      -0.448748       -12.2111 
  53   2.0000      -0.444971       -12.1083 
  54   2.0000      -0.439839       -11.9686 
  55   2.0000      -0.427322       -11.6280 
  56   2.0000      -0.421640       -11.4734 
  57   2.0000      -0.404005       -10.9935 
  58   2.0000      -0.403451       -10.9785 
  59   2.0000      -0.402437       -10.9509 
  60   2.0000      -0.392555       -10.6820 
  61   2.0000      -0.386691       -10.5224 
  62   2.0000      -0.384401       -10.4601 
  63   2.0000      -0.351017        -9.5517 
  64   2.0000      -0.349743        -9.5170 
  65   2.0000      -0.346371        -9.4252 
  66   2.0000      -0.345692        -9.4068 
  67   2.0000      -0.330748        -9.0001 
  68   2.0000      -0.286761        -7.8032 
  69   2.0000      -0.283839        -7.7236 
  70   2.0000      -0.276406        -7.5214 
  71   2.0000      -0.268693        -7.3115 
  72   2.0000      -0.267614        -7.2821 
  73   2.0000      -0.265266        -7.2182 
  74   2.0000      -0.220715        -6.0060 
  75   2.0000      -0.217967        -5.9312 
  76   0.0000      -0.124288        -3.3821 
  77   0.0000      -0.079125        -2.1531 
  78   0.0000      -0.071145        -1.9360 
  79   0.0000      -0.064852        -1.7647 
  80   0.0000      -0.030486        -0.8296 
  81   0.0000      -0.025791        -0.7018 
  82   0.0000      -0.012847        -0.3496 
  83   0.0000       0.015743         0.4284 
  84   0.0000       0.045375         1.2347 
  85   0.0000       0.055808         1.5186 
  86   0.0000       0.059023         1.6061 
  87   0.0000       0.063236         1.7208 
  88   0.0000       0.075383         2.0513 
  89   0.0000       0.079169         2.1543 
  90   0.0000       0.091961         2.5024 
  91   0.0000       0.093863         2.5541 
  92   0.0000       0.111504         3.0342 
  93   0.0000       0.118445         3.2230 
  94   0.0000       0.144325         3.9273 
  95   0.0000       0.163662         4.4535 
  96   0.0000       0.176949         4.8150 
  97   0.0000       0.186714         5.0807 
  98   0.0000       0.210612         5.7310 
  99   0.0000       0.216148         5.8817 
 100   0.0000       0.224821         6.1177 
 101   0.0000       0.229552         6.2464 
 102   0.0000       0.239206         6.5091 
 103   0.0000       0.247569         6.7367 
 104   0.0000       0.251708         6.8493 
 105   0.0000       0.254240         6.9182 
 106   0.0000       0.256840         6.9890 
 107   0.0000       0.275373         7.4933 
 108   0.0000       0.284131         7.7316 
 109   0.0000       0.287468         7.8224 
 110   0.0000       0.291486         7.9317 
 111   0.0000       0.299434         8.1480 
 112   0.0000       0.310111         8.4385 
 113   0.0000       0.325562         8.8590 
 114   0.0000       0.337203         9.1758 
 115   0.0000       0.353417         9.6170 
 116   0.0000       0.354342         9.6421 
 117   0.0000       0.358775         9.7628 
 118   0.0000       0.366043         9.9605 
 119   0.0000       0.371818        10.1177 
 120   0.0000       0.372354        10.1323 
 121   0.0000       0.373614        10.1665 
 122   0.0000       0.375495        10.2177 
 123   0.0000       0.379707        10.3323 
 124   0.0000       0.389929        10.6105 
 125   0.0000       0.393061        10.6957 
 126   0.0000       0.402908        10.9637 
 127   0.0000       0.404817        11.0156 
 128   0.0000       0.406031        11.0487 
 129   0.0000       0.408149        11.1063 
 130   0.0000       0.410782        11.1779 
 131   0.0000       0.413600        11.2546 
 132   0.0000       0.418659        11.3923 
 133   0.0000       0.428342        11.6558 
 134   0.0000       0.434168        11.8143 
 135   0.0000       0.435427        11.8486 
 136   0.0000       0.440549        11.9880 
 137   0.0000       0.442274        12.0349 
 138   0.0000       0.447987        12.1904 
 139   0.0000       0.449459        12.2304 
 140   0.0000       0.455156        12.3854 
 141   0.0000       0.459007        12.4902 
 142   0.0000       0.460019        12.5177 
 143   0.0000       0.469568        12.7776 
 144   0.0000       0.470885        12.8134 
 145   0.0000       0.471689        12.8353 
 146   0.0000       0.472597        12.8600 
 147   0.0000       0.473096        12.8736 
 148   0.0000       0.485114        13.2006 
 149   0.0000       0.498031        13.5521 
 150   0.0000       0.500207        13.6113 
 151   0.0000       0.504509        13.7284 
 152   0.0000       0.514556        14.0018 
 153   0.0000       0.519074        14.1247 
 154   0.0000       0.528465        14.3803 
 155   0.0000       0.532449        14.4887 
 156   0.0000       0.536030        14.5861 
 157   0.0000       0.545812        14.8523 
 158   0.0000       0.546477        14.8704 
 159   0.0000       0.554277        15.0826 
 160   0.0000       0.556512        15.1435 
 161   0.0000       0.570993        15.5375 
 162   0.0000       0.573604        15.6085 
 163   0.0000       0.582235        15.8434 
 164   0.0000       0.593541        16.1511 
 165   0.0000       0.599233        16.3060 
 166   0.0000       0.602575        16.3969 
 167   0.0000       0.610373        16.6091 
 168   0.0000       0.621652        16.9160 
 169   0.0000       0.624619        16.9967 
 170   0.0000       0.629523        17.1302 
 171   0.0000       0.638894        17.3852 
 172   0.0000       0.644333        17.5332 
 173   0.0000       0.649450        17.6724 
 174   0.0000       0.653582        17.7849 
 175   0.0000       0.655892        17.8477 
 176   0.0000       0.671872        18.2826 
 177   0.0000       0.672804        18.3079 
 178   0.0000       0.683976        18.6119 
 179   0.0000       0.700701        19.0670 
 180   0.0000       0.732246        19.9254 
 181   0.0000       0.738754        20.1025 
 182   0.0000       0.747114        20.3300 
 183   0.0000       0.749233        20.3877 
 184   0.0000       0.751171        20.4404 
 185   0.0000       0.755931        20.5699 
 186   0.0000       0.767957        20.8972 
 187   0.0000       0.780654        21.2427 
 188   0.0000       0.784505        21.3475 
 189   0.0000       0.802091        21.8260 
 190   0.0000       0.807160        21.9639 
 191   0.0000       0.809244        22.0206 
 192   0.0000       0.811280        22.0760 
 193   0.0000       0.828532        22.5455 
 194   0.0000       0.835161        22.7259 
 195   0.0000       0.844251        22.9732 
 196   0.0000       0.857718        23.3397 
 197   0.0000       0.859092        23.3771 
 198   0.0000       0.861888        23.4532 
 199   0.0000       0.869102        23.6495 
 200   0.0000       0.878385        23.9021 
 201   0.0000       0.888864        24.1872 
 202   0.0000       0.898316        24.4444 
 203   0.0000       0.912917        24.8417 
 204   0.0000       0.916384        24.9361 
 205   0.0000       0.933355        25.3979 
 206   0.0000       0.938974        25.5508 
 207   0.0000       0.948561        25.8117 
 208   0.0000       0.972977        26.4761 
 209   0.0000       0.981185        26.6994 
 210   0.0000       0.987495        26.8711 
 211   0.0000       0.991699        26.9855 
 212   0.0000       0.997569        27.1452 
 213   0.0000       0.999591        27.2003 
 214   0.0000       1.000727        27.2312 
 215   0.0000       1.006317        27.3833 
 216   0.0000       1.032324        28.0910 
 217   0.0000       1.033216        28.1152 
 218   0.0000       1.049267        28.5520 
 219   0.0000       1.051492        28.6125 
 220   0.0000       1.055568        28.7235 
 221   0.0000       1.059295        28.8249 
 222   0.0000       1.063440        28.9377 
 223   0.0000       1.074100        29.2277 
 224   0.0000       1.086112        29.5546 
 225   0.0000       1.092235        29.7212 
 226   0.0000       1.092339        29.7241 
 227   0.0000       1.113527        30.3006 
 228   0.0000       1.117933        30.4205 
 229   0.0000       1.122641        30.5486 
 230   0.0000       1.128771        30.7154 
 231   0.0000       1.137795        30.9610 
 232   0.0000       1.141463        31.0608 
 233   0.0000       1.149263        31.2730 
 234   0.0000       1.167464        31.7683 
 235   0.0000       1.183551        32.2060 
 236   0.0000       1.198837        32.6220 
 237   0.0000       1.201180        32.6858 
 238   0.0000       1.218122        33.1468 
 239   0.0000       1.237888        33.6846 
 240   0.0000       1.248978        33.9864 
 241   0.0000       1.259606        34.2756 
 242   0.0000       1.273297        34.6482 
 243   0.0000       1.290126        35.1061 
 244   0.0000       1.290544        35.1175 
 245   0.0000       1.317656        35.8553 
 246   0.0000       1.339464        36.4487 
 247   0.0000       1.358500        36.9667 
 248   0.0000       1.376786        37.4643 
 249   0.0000       1.380542        37.5664 
 250   0.0000       1.393773        37.9265 
 251   0.0000       1.421817        38.6896 
 252   0.0000       1.431238        38.9460 
 253   0.0000       1.437564        39.1181 
 254   0.0000       1.438004        39.1301 
 255   0.0000       1.446341        39.3569 
 256   0.0000       1.447860        39.3983 
 257   0.0000       1.451308        39.4921 
 258   0.0000       1.456334        39.6289 
 259   0.0000       1.466961        39.9181 
 260   0.0000       1.470423        40.0122 
 261   0.0000       1.479113        40.2487 
 262   0.0000       1.483687        40.3732 
 263   0.0000       1.490667        40.5631 
 264   0.0000       1.493852        40.6498 
 265   0.0000       1.516937        41.2780 
 266   0.0000       1.522137        41.4194 
 267   0.0000       1.528736        41.5990 
 268   0.0000       1.534765        41.7631 
 269   0.0000       1.547087        42.0984 
 270   0.0000       1.551067        42.2067 
 271   0.0000       1.562437        42.5161 
 272   0.0000       1.565346        42.5952 
 273   0.0000       1.583197        43.0810 
 274   0.0000       1.589814        43.2610 
 275   0.0000       1.594184        43.3800 
 276   0.0000       1.608253        43.7628 
 277   0.0000       1.619132        44.0588 
 278   0.0000       1.637550        44.5600 
 279   0.0000       1.667622        45.3783 
 280   0.0000       1.670879        45.4669 
 281   0.0000       1.692203        46.0472 
 282   0.0000       1.700011        46.2597 
 283   0.0000       1.708207        46.4827 
 284   0.0000       1.723625        46.9022 
 285   0.0000       1.724124        46.9158 
 286   0.0000       1.730123        47.0790 
 287   0.0000       1.743753        47.4499 
 288   0.0000       1.766470        48.0681 
 289   0.0000       1.768710        48.1290 
 290   0.0000       1.770707        48.1834 
 291   0.0000       1.774455        48.2854 
 292   0.0000       1.788996        48.6811 
 293   0.0000       1.803381        49.0725 
 294   0.0000       1.815044        49.3899 
 295   0.0000       1.822446        49.5913 
 296   0.0000       1.824159        49.6379 
 297   0.0000       1.825471        49.6736 
 298   0.0000       1.836154        49.9643 
 299   0.0000       1.837015        49.9877 
 300   0.0000       1.873155        50.9711 
 301   0.0000       1.876137        51.0523 
 302   0.0000       1.876163        51.0530 
 303   0.0000       1.879468        51.1429 
 304   0.0000       1.881188        51.1897 
 305   0.0000       1.896020        51.5933 
 306   0.0000       1.897193        51.6253 
 307   0.0000       1.900504        51.7153 
 308   0.0000       1.903373        51.7934 
 309   0.0000       1.914325        52.0914 
 310   0.0000       1.943446        52.8839 
 311   0.0000       1.946780        52.9746 
 312   0.0000       1.959575        53.3227 
 313   0.0000       1.971379        53.6440 
 314   0.0000       1.977919        53.8219 
 315   0.0000       1.979652        53.8691 
 316   0.0000       1.989179        54.1283 
 317   0.0000       2.012198        54.7547 
 318   0.0000       2.012296        54.7574 
 319   0.0000       2.019544        54.9546 
 320   0.0000       2.028848        55.2078 
 321   0.0000       2.031406        55.2774 
 322   0.0000       2.044270        55.6274 
 323   0.0000       2.059878        56.0521 
 324   0.0000       2.068619        56.2900 
 325   0.0000       2.075417        56.4750 
 326   0.0000       2.098384        57.0999 
 327   0.0000       2.114141        57.5287 
 328   0.0000       2.124687        57.8157 
 329   0.0000       2.148158        58.4543 
 330   0.0000       2.152971        58.5853 
 331   0.0000       2.162278        58.8386 
 332   0.0000       2.174144        59.1615 
 333   0.0000       2.182670        59.3935 
 334   0.0000       2.190465        59.6056 
 335   0.0000       2.255852        61.3848 
 336   0.0000       2.269365        61.7526 
 337   0.0000       2.279475        62.0277 
 338   0.0000       2.287338        62.2416 
 339   0.0000       2.294929        62.4482 
 340   0.0000       2.311422        62.8970 
 341   0.0000       2.312149        62.9168 
 342   0.0000       2.324143        63.2431 
 343   0.0000       2.344923        63.8086 
 344   0.0000       2.356188        64.1151 
 345   0.0000       2.372732        64.5653 
 346   0.0000       2.380882        64.7871 
 347   0.0000       2.406262        65.4777 
 348   0.0000       2.443293        66.4854 
 349   0.0000       2.452144        66.7262 
 350   0.0000       2.471417        67.2507 
 351   0.0000       2.480201        67.4897 
 352   0.0000       2.489942        67.7548 
 353   0.0000       2.493374        67.8482 
 354   0.0000       2.523974        68.6808 
 355   0.0000       2.529223        68.8237 
 356   0.0000       2.535357        68.9906 
 357   0.0000       2.539351        69.0992 
 358   0.0000       2.543885        69.2226 
 359   0.0000       2.554629        69.5150 
 360   0.0000       2.571935        69.9859 
 361   0.0000       2.590318        70.4861 
 362   0.0000       2.600848        70.7727 
 363   0.0000       2.606199        70.9183 
 364   0.0000       2.609953        71.0204 
 365   0.0000       2.612278        71.0837 
 366   0.0000       2.627868        71.5079 
 367   0.0000       2.627906        71.5089 
 368   0.0000       2.645543        71.9889 
 369   0.0000       2.656824        72.2959 
 370   0.0000       2.664977        72.5177 
 371   0.0000       2.666296        72.5536 
 372   0.0000       2.673472        72.7489 
 373   0.0000       2.684479        73.0484 
 374   0.0000       2.686143        73.0937 
 375   0.0000       2.704770        73.6005 
 376   0.0000       2.729733        74.2798 
 377   0.0000       2.731776        74.3354 
 378   0.0000       2.741654        74.6042 
 379   0.0000       2.759767        75.0971 
 380   0.0000       2.764886        75.2364 
 381   0.0000       2.770629        75.3926 
 382   0.0000       2.787865        75.8617 
 383   0.0000       2.793235        76.0078 
 384   0.0000       2.797163        76.1147 
 385   0.0000       2.808561        76.4248 
 386   0.0000       2.812987        76.5453 
 387   0.0000       2.835562        77.1596 
 388   0.0000       2.847128        77.4743 
 389   0.0000       2.850284        77.5602 
 390   0.0000       2.851555        77.5948 
 391   0.0000       2.869026        78.0702 
 392   0.0000       2.869798        78.0912 
 393   0.0000       2.877950        78.3130 
 394   0.0000       2.882851        78.4464 
 395   0.0000       2.929604        79.7186 
 396   0.0000       2.935041        79.8665 
 397   0.0000       2.963144        80.6313 
 398   0.0000       2.995505        81.5118 
 399   0.0000       3.001408        81.6725 
 400   0.0000       3.026092        82.3442 
 401   0.0000       3.032610        82.5215 
 402   0.0000       3.082671        83.8837 
 403   0.0000       3.090209        84.0889 
 404   0.0000       3.125797        85.0573 
 405   0.0000       3.132940        85.2516 
 406   0.0000       3.144088        85.5550 
 407   0.0000       3.164260        86.1039 
 408   0.0000       3.202708        87.1501 
 409   0.0000       3.210198        87.3539 
 410   0.0000       3.227300        87.8193 
 411   0.0000       3.242463        88.2319 
 412   0.0000       3.276883        89.1685 
 413   0.0000       3.295218        89.6674 
 414   0.0000       3.304872        89.9301 
 415   0.0000       3.328858        90.5828 
 416   0.0000       3.342965        90.9667 
 417   0.0000       3.363225        91.5180 
 418   0.0000       3.370912        91.7272 
 419   0.0000       3.376443        91.8777 
 420   0.0000       3.383257        92.0631 
 421   0.0000       3.399735        92.5115 
 422   0.0000       3.408380        92.7467 
 423   0.0000       3.420252        93.0698 
 424   0.0000       3.443304        93.6971 
 425   0.0000       3.460208        94.1570 
 426   0.0000       3.465213        94.2932 
[...]
     63       0.000163   0.000118  -0.000055  -0.000263  -0.000273  -0.000076
     64      -0.000172  -0.000064  -0.000034   0.000164   0.000169  -0.000018
     65       0.000000   0.000000   0.000000   0.000000  -0.000000   0.000000
     66      -0.000522  -0.000352   0.000036  -0.000186  -0.000122   0.000028
     67      -0.000384  -0.000280   0.000006  -0.000051  -0.000005   0.000009
     68      -0.000000  -0.000000   0.000000  -0.000000   0.000000  -0.000000
     69       0.000042  -0.000057   0.000013  -0.000052   0.000062  -0.000007
     70       0.000586  -0.000440  -0.000034   0.000181  -0.000111   0.000029
     71       0.000000  -0.000000   0.000000   0.000000   0.000000  -0.000000
     72       0.168959  -0.058717  -0.002328  -0.568964   0.589407  -0.005180
     73      -0.098440   0.034361   0.001271   0.323058  -0.334648   0.002949
     74       0.000010  -0.000004  -0.000000  -0.000035   0.000037  -0.000000
     75       0.005016   0.000894   0.000044   0.004681  -0.004841   0.000057
     76       0.555333  -0.112038   0.003752   0.222963  -0.231955   0.002914
     77      -0.000017   0.000004  -0.000000  -0.000007   0.000007  -0.000000
     78      -0.001069   0.015036  -0.000003   0.000568   0.000233  -0.000036
     79       0.187325  -0.688828   0.000476   0.013757  -0.028723   0.002024
     80      -0.000006   0.000022  -0.000000  -0.000000   0.000001  -0.000000
     81      -0.127871  -0.600164  -0.000334  -0.012608  -0.024418   0.001784
     82      -0.078378  -0.349175  -0.000204  -0.008356  -0.014628   0.001048
     83      -0.000003  -0.000016  -0.000000  -0.000000  -0.000001   0.000000
     84      -0.614075  -0.098338  -0.003187  -0.195864  -0.189487   0.002485
     85      -0.383288  -0.059062  -0.002000  -0.125417  -0.121302   0.001586
     86      -0.000016  -0.000003  -0.000000  -0.000005  -0.000005  -0.000000
     87       0.223373   0.061360  -0.002372  -0.593096  -0.571275   0.005196
     88      -0.120565  -0.032966   0.001364   0.328604   0.316530  -0.002872
     89       0.000014   0.000004  -0.000000  -0.000037  -0.000035   0.000000
     90      -0.000068   0.000061   0.015747  -0.000059   0.000205   0.020411
     91       0.002624  -0.001926  -0.705902   0.003688  -0.006639  -0.702343
     92      -0.000000   0.000000   0.000021  -0.000000   0.000000   0.000022
     93      -0.002394  -0.001614   0.607781  -0.003366  -0.005751  -0.612636
     94      -0.001384  -0.000917   0.353179  -0.001980  -0.003275  -0.350475
     95      -0.000000  -0.000000   0.000015  -0.000000  -0.000000  -0.000016


-----------
IR SPECTRUM
-----------

 Mode   freq       eps      Int      T**2         TX        TY        TZ
       cm**-1   L/(mol*cm) km/mol    a.u.
----------------------------------------------------------------------------
  6:     85.01   0.000090    0.46  0.000331  ( 0.000054 -0.000004 -0.018198)
  7:     85.32   0.000000    0.00  0.000000  ( 0.000001 -0.000036 -0.000195)
  8:    130.14   0.000749    3.79  0.001797  ( 0.000012 -0.000005  0.042387)
  9:    170.07   0.000036    0.18  0.000067  (-0.000001 -0.000013 -0.008174)
 10:    222.87   0.000000    0.00  0.000000  ( 0.000000  0.000006 -0.000001)
 11:    292.91   0.000000    0.00  0.000000  ( 0.000009  0.000009 -0.000635)
 12:    293.04   0.000000    0.00  0.000000  (-0.000003  0.000013 -0.000213)
 13:    317.13   0.000290    1.47  0.000285  ( 0.000004 -0.000008  0.016890)
 14:    335.87   0.000000    0.00  0.000000  ( 0.000002  0.000009 -0.000012)
 15:    354.55   0.003154   15.94  0.002776  ( 0.025640  0.046031 -0.000000)
 16:    359.84   0.000638    3.23  0.000554  ( 0.020612 -0.011348  0.000001)
 17:    393.96   0.000146    0.74  0.000116  ( 0.009419 -0.005202  0.000001)
 18:    399.25   0.000185    0.94  0.000145  (-0.005785 -0.010548  0.000000)
 19:    418.67   0.000048    0.24  0.000036  ( 0.000002  0.000004  0.006007)
 20:    425.55   0.007075   35.75  0.005188  (-0.062666  0.035510 -0.000003)
 21:    432.45   0.000000    0.00  0.000000  (-0.000021 -0.000020 -0.000043)
 22:    458.93   0.017815   90.03  0.012114  (-0.053959 -0.095927  0.000001)
 23:    473.03   0.000000    0.00  0.000000  (-0.000008 -0.000008  0.000041)
 24:    474.23   0.000087    0.44  0.000057  (-0.003720 -0.006578  0.000000)
 25:    492.16   0.000218    1.10  0.000138  ( 0.005764  0.010257  0.000000)
 26:    504.25   0.000011    0.06  0.000007  (-0.000018  0.000021  0.002666)
 27:    507.04   0.000081    0.41  0.000050  (-0.006155  0.003478 -0.000001)
 28:    526.94   0.002371   11.98  0.001404  (-0.018302 -0.032697  0.000000)
 29:    550.79   0.000000    0.00  0.000000  (-0.000009 -0.000010  0.000020)
 30:    582.08   0.004130   20.87  0.002214  ( 0.000003  0.000002 -0.047052)
 31:    585.48   0.000937    4.74  0.000500  (-0.019488  0.010942 -0.000005)
 32:    600.09   0.000000    0.00  0.000000  (-0.000007  0.000000  0.000031)
 33:    647.72   0.000042    0.21  0.000020  (-0.000001 -0.000011 -0.004523)
 34:    669.75   0.000721    3.64  0.000336  ( 0.015978 -0.008982  0.000001)
 35:    671.54   0.000000    0.00  0.000000  (-0.000006  0.000010  0.000007)
 36:    684.31   0.000102    0.52  0.000047  (-0.005959  0.003316 -0.000000)
 37:    726.60   0.000000    0.00  0.000000  (-0.000012 -0.000008 -0.000004)
 38:    730.16   0.000682    3.44  0.000291  (-0.008324 -0.014900  0.000000)
 39:    747.62   0.000308    1.56  0.000129  (-0.009888  0.005551 -0.000001)
 40:    749.58   0.000235    1.19  0.000098  (-0.000025 -0.000008  0.009895)
 41:    783.54   0.000000    0.00  0.000000  ( 0.000014  0.000007  0.000044)
 42:    797.28   0.000526    2.66  0.000206  ( 0.000004 -0.000004  0.014350)
 43:    823.68   0.000025    0.12  0.000009  ( 0.001436  0.002701  0.000003)
 44:    825.05   0.000337    1.70  0.000128  (-0.009846  0.005529  0.000001)
 45:    833.53   0.005466   27.62  0.002046  (-0.000012 -0.000005  0.045238)
 46:    836.72   0.000000    0.00  0.000000  ( 0.000006  0.000000  0.000045)
 47:    864.78   0.016289   82.32  0.005878  ( 0.000009 -0.000010  0.076668)
 48:    887.02   0.000063    0.32  0.000022  (-0.004118  0.002308 -0.000001)
 49:    967.12   0.000000    0.00  0.000000  ( 0.000001 -0.000017  0.000018)
 50:    976.17   0.000034    0.17  0.000011  (-0.000022 -0.000003  0.003315)
 51:    976.69   0.000000    0.00  0.000000  ( 0.000003  0.000004 -0.000005)
 52:    977.97   0.000437    2.21  0.000139  ( 0.005763  0.010309 -0.000001)
 53:    984.08   0.000000    0.00  0.000000  (-0.000008  0.000018  0.000002)
 54:    997.67   0.000000    0.00  0.000000  (-0.000203  0.000097 -0.000001)
 55:   1032.88   0.000208    1.05  0.000063  (-0.003914 -0.006894  0.000000)
 56:   1121.83   0.002503   12.65  0.000696  (-0.012883 -0.023030  0.000000)
 57:   1140.59   0.001690    8.54  0.000462  ( 0.018755 -0.010523  0.000001)
 58:   1160.85   0.000494    2.50  0.000133  (-0.010044  0.005642 -0.000001)
 59:   1171.92   0.000246    1.24  0.000065  ( 0.003968  0.007047 -0.000000)
 60:   1210.13   0.000073    0.37  0.000019  (-0.002115 -0.003782  0.000000)
 61:   1227.39   0.000428    2.16  0.000109  (-0.005097 -0.009102  0.000000)
 62:   1234.46   0.000890    4.50  0.000225  ( 0.013091 -0.007325  0.000001)
 63:   1237.23   0.000054    0.27  0.000014  ( 0.001869  0.003196  0.000000)
 64:   1238.27   0.000305    1.54  0.000077  (-0.007616  0.004357 -0.000000)
 65:   1262.10   0.001181    5.97  0.000292  (-0.008376 -0.014891  0.000000)
 66:   1280.70   0.001079    5.45  0.000263  ( 0.014158 -0.007904  0.000001)
 67:   1300.63   0.000035    0.18  0.000008  ( 0.001401  0.002534 -0.000000)
 68:   1337.71   0.000426    2.15  0.000099  ( 0.004891  0.008681 -0.000000)
 69:   1351.09   0.000107    0.54  0.000025  (-0.004337  0.002450 -0.000000)
 70:   1366.26   0.000139    0.70  0.000032  ( 0.004909 -0.002747  0.000000)
 71:   1372.26   0.000033    0.17  0.000007  (-0.002377  0.001352 -0.000000)
 72:   1388.22   0.000550    2.78  0.000124  (-0.005442 -0.009691  0.000000)
 73:   1404.63   0.000001    0.00  0.000000  ( 0.000214  0.000401  0.000000)
 74:   1422.02   0.000102    0.52  0.000022  (-0.002339 -0.004122  0.000000)
 75:   1456.30   0.000001    0.00  0.000000  (-0.000207 -0.000345 -0.000000)
 76:   1459.67   0.000025    0.13  0.000005  (-0.002039  0.001135 -0.000000)
 77:   1471.57   0.000845    4.27  0.000179  ( 0.011677 -0.006541  0.000001)
 78:   1517.37   0.000300    1.52  0.000062  ( 0.006864 -0.003831  0.000000)
 79:   1529.47   0.002808   14.19  0.000573  (-0.011701 -0.020883  0.000000)
 80:   1562.20   0.002431   12.28  0.000486  (-0.010835 -0.019187  0.000000)
 81:   1574.65   0.006730   34.01  0.001334  (-0.031859  0.017855 -0.000002)
 82:   1590.80   0.001809    9.14  0.000355  (-0.016447  0.009179 -0.000001)
 83:   1624.84   0.001702    8.60  0.000327  (-0.008838 -0.015771  0.000000)
 84:   1644.83   0.000352    1.78  0.000067  (-0.007139  0.003987 -0.000000)
 85:   1655.34   0.003968   20.05  0.000748  (-0.013421 -0.023831  0.000000)
 86:   2069.74   0.000008    0.04  0.000001  (-0.000522 -0.000965  0.000000)
 87:   2088.23   0.000122    0.61  0.000018  ( 0.003723 -0.002076  0.000000)
 88:   3160.65   0.000206    1.04  0.000020  (-0.003898  0.002272 -0.000000)
 89:   3168.01   0.001349    6.82  0.000133  ( 0.004393  0.010658 -0.000000)
 90:   3168.74   0.001061    5.36  0.000105  ( 0.009490 -0.003805  0.000001)
 91:   3178.99   0.006734   34.03  0.000661  ( 0.012581  0.022421 -0.000000)
 92:   3186.19   0.000232    1.17  0.000023  (-0.004113  0.002408 -0.000000)
 93:   3194.90   0.004493   22.70  0.000439  ( 0.018371 -0.010067  0.000001)
 94:   3195.00   0.001128    5.70  0.000110  ( 0.004807  0.009331 -0.000000)
 95:   3201.58   0.002270   11.47  0.000221  ( 0.007282  0.012969 -0.000000)

* The epsilon (eps) is given for a Dirac delta lineshape.
** The dipole moment derivative (T) already includes vibrational overlap.

The first frequency considered to be a vibration is 6
The total number of vibrations considered is 90


--------------------------
THERMOCHEMISTRY AT 298.15K
--------------------------

Temperature         ... 298.15 K
Pressure            ... 1.00 atm
Total Mass          ... 296.33 AMU

Throughout the following assumptions are being made:
  (1) The electronic state is orbitally nondegenerate
  (2) There are no thermally accessible electronically excited states
  (3) Hindered rotations indicated by low frequency modes are not
      treated as such but are treated as vibrations and this may
      cause some error
  (4) All equations used are the standard statistical mechanics
      equations for an ideal gas
  (5) All vibrations are strictly harmonic

freq.      85.01  E(vib)   ...       0.48 
freq.      85.32  E(vib)   ...       0.48 
freq.     130.14  E(vib)   ...       0.43 
freq.     170.07  E(vib)   ...       0.38 
freq.     222.87  E(vib)   ...       0.33 
freq.     292.91  E(vib)   ...       0.27 
freq.     293.04  E(vib)   ...       0.27 
freq.     317.13  E(vib)   ...       0.25 
freq.     335.87  E(vib)   ...       0.24 
freq.     354.55  E(vib)   ...       0.22 
freq.     359.84  E(vib)   ...       0.22 
freq.     393.96  E(vib)   ...       0.20 
freq.     399.25  E(vib)   ...       0.19 
freq.     418.67  E(vib)   ...       0.18 
freq.     425.55  E(vib)   ...       0.18 
freq.     432.45  E(vib)   ...       0.18 
freq.     458.93  E(vib)   ...       0.16 
freq.     473.03  E(vib)   ...       0.15 
freq.     474.23  E(vib)   ...       0.15 
freq.     492.16  E(vib)   ...       0.14 
freq.     504.25  E(vib)   ...       0.14 
freq.     507.04  E(vib)   ...       0.14 
freq.     526.94  E(vib)   ...       0.13 
freq.     550.79  E(vib)   ...       0.12 
freq.     582.08  E(vib)   ...       0.11 
freq.     585.48  E(vib)   ...       0.11 
freq.     600.09  E(vib)   ...       0.10 
freq.     647.72  E(vib)   ...       0.09 
freq.     669.75  E(vib)   ...       0.08 
freq.     671.54  E(vib)   ...       0.08 
freq.     684.31  E(vib)   ...       0.07 
freq.     726.60  E(vib)   ...       0.06 
freq.     730.16  E(vib)   ...       0.06 
freq.     747.62  E(vib)   ...       0.06 
freq.     749.58  E(vib)   ...       0.06 
freq.     783.54  E(vib)   ...       0.05 
freq.     797.28  E(vib)   ...       0.05 
freq.     823.68  E(vib)   ...       0.05 
freq.     825.05  E(vib)   ...       0.04 
freq.     833.53  E(vib)   ...       0.04 
freq.     836.72  E(vib)   ...       0.04 
freq.     864.78  E(vib)   ...       0.04 
freq.     887.02  E(vib)   ...       0.04 
freq.     967.12  E(vib)   ...       0.03 
freq.     976.17  E(vib)   ...       0.03 
freq.     976.69  E(vib)   ...       0.03 
freq.     977.97  E(vib)   ...       0.03 
freq.     984.08  E(vib)   ...       0.02 
freq.     997.67  E(vib)   ...       0.02 
freq.    1032.88  E(vib)   ...       0.02 
freq.    1121.83  E(vib)   ...       0.01 
freq.    1140.59  E(vib)   ...       0.01 
freq.    1160.85  E(vib)   ...       0.01 
freq.    1171.92  E(vib)   ...       0.01 
freq.    1210.13  E(vib)   ...       0.01 
freq.    1227.39  E(vib)   ...       0.01 
freq.    1234.46  E(vib)   ...       0.01 
freq.    1237.23  E(vib)   ...       0.01 
freq.    1238.27  E(vib)   ...       0.01 
freq.    1262.10  E(vib)   ...       0.01 
freq.    1280.70  E(vib)   ...       0.01 
freq.    1300.63  E(vib)   ...       0.01 
freq.    1337.71  E(vib)   ...       0.01 
freq.    1351.09  E(vib)   ...       0.01 
freq.    1366.26  E(vib)   ...       0.01 
freq.    1372.26  E(vib)   ...       0.01 
freq.    1388.22  E(vib)   ...       0.00 
freq.    1404.63  E(vib)   ...       0.00 
freq.    1422.02  E(vib)   ...       0.00 
freq.    1456.30  E(vib)   ...       0.00 
freq.    1459.67  E(vib)   ...       0.00 
freq.    1471.57  E(vib)   ...       0.00 
freq.    1517.37  E(vib)   ...       0.00 
freq.    1529.47  E(vib)   ...       0.00 
freq.    1562.20  E(vib)   ...       0.00 
freq.    1574.65  E(vib)   ...       0.00 
freq.    1590.80  E(vib)   ...       0.00 
freq.    1624.84  E(vib)   ...       0.00 
freq.    1644.83  E(vib)   ...       0.00 
freq.    1655.34  E(vib)   ...       0.00 
freq.    2069.74  E(vib)   ...       0.00 
freq.    2088.23  E(vib)   ...       0.00 
freq.    3160.65  E(vib)   ...       0.00 
freq.    3168.01  E(vib)   ...       0.00 
freq.    3168.74  E(vib)   ...       0.00 
freq.    3178.99  E(vib)   ...       0.00 
freq.    3186.19  E(vib)   ...       0.00 
freq.    3194.90  E(vib)   ...       0.00 
freq.    3195.00  E(vib)   ...       0.00 
freq.    3201.58  E(vib)   ...       0.00 

------------
INNER ENERGY
------------

The inner energy is: U= E(el) + E(ZPE) + E(vib) + E(rot) + E(trans)
    E(el)   - is the total energy from the electronic structure calculation
              = E(kin-el) + E(nuc-el) + E(el-el) + E(nuc-nuc)
    E(ZPE)  - the the zero temperature vibrational energy from the frequency calculation
    E(vib)  - the the finite temperature correction to E(ZPE) due to population
              of excited vibrational states
    E(rot)  - is the rotational thermal energy
    E(trans)- is the translational thermal energy

Summary of contributions to the inner energy U:
Electronic energy                ...   -918.95951849 Eh
Zero point energy                ...      0.22916201 Eh     143.80 kcal/mol
Thermal vibrational correction   ...      0.01149800 Eh       7.22 kcal/mol
Thermal rotational correction    ...      0.00141627 Eh       0.89 kcal/mol
Thermal translational correction ...      0.00141627 Eh       0.89 kcal/mol
-----------------------------------------------------------------------
Total thermal energy                   -918.71602594 Eh


Summary of corrections to the electronic energy:
(perhaps to be used in another calculation)
Total thermal correction                  0.01433054 Eh       8.99 kcal/mol
Non-thermal (ZPE) correction              0.22916201 Eh     143.80 kcal/mol
-----------------------------------------------------------------------
Total correction                          0.24349255 Eh     152.79 kcal/mol


--------
ENTHALPY
--------

The enthalpy is H = U + kB*T
                kB is Boltzmann's constant
Total free energy                 ...   -918.71602594 Eh 
Thermal Enthalpy correction       ...      0.00094421 Eh       0.59 kcal/mol
-----------------------------------------------------------------------
Total Enthalpy                    ...   -918.71508173 Eh


Note: Rotational entropy computed according to Herzberg 
Infrared and Raman Spectra, Chapter V,1, Van Nostrand Reinhold, 1945 
Point Group:  Cs, Symmetry Number:   1  
Rotational constants in cm-1:     0.011867     0.011247     0.005774 

Vibrational entropy computed according to the QRRHO of S. Grimme
Chem.Eur.J. 2012 18 9955


-------
ENTROPY
-------

The entropy contributions are T*S = T*(S(el)+S(vib)+S(rot)+S(trans))
     S(el)   - electronic entropy
     S(vib)  - vibrational entropy
     S(rot)  - rotational entropy
     S(trans)- translational entropy
The entropies will be listed as multiplied by the temperature to get
units of energy

Electronic entropy                ...      0.00000000 Eh      0.00 kcal/mol
Vibrational entropy               ...      0.01814391 Eh     11.39 kcal/mol
Rotational entropy                ...      0.01615595 Eh     10.14 kcal/mol
Translational entropy             ...      0.02040973 Eh     12.81 kcal/mol
-----------------------------------------------------------------------
Final entropy term                ...      0.05470959 Eh     34.33 kcal/mol

In case the symmetry of your molecule has not been determined correctly
or in case you have a reason to use a different symmetry number we print 
out the resulting rotational entropy values for sn=1,12 :
 --------------------------------------------------------
|  sn= 1 | S(rot)=       0.01615595 Eh     10.14 kcal/mol|
|  sn= 2 | S(rot)=       0.01550149 Eh      9.73 kcal/mol|
|  sn= 3 | S(rot)=       0.01511866 Eh      9.49 kcal/mol|
|  sn= 4 | S(rot)=       0.01484704 Eh      9.32 kcal/mol|
|  sn= 5 | S(rot)=       0.01463635 Eh      9.18 kcal/mol|
|  sn= 6 | S(rot)=       0.01446420 Eh      9.08 kcal/mol|
|  sn= 7 | S(rot)=       0.01431866 Eh      8.99 kcal/mol|
|  sn= 8 | S(rot)=       0.01419258 Eh      8.91 kcal/mol|
|  sn= 9 | S(rot)=       0.01408137 Eh      8.84 kcal/mol|
|  sn=10 | S(rot)=       0.01398189 Eh      8.77 kcal/mol|
|  sn=11 | S(rot)=       0.01389190 Eh      8.72 kcal/mol|
|  sn=12 | S(rot)=       0.01380975 Eh      8.67 kcal/mol|
 --------------------------------------------------------


-------------------
GIBBS FREE ENERGY
-------------------

The Gibbs free energy is G = H - T*S

Total enthalpy                    ...   -918.71508173 Eh 
Total entropy correction          ...     -0.05470959 Eh    -34.33 kcal/mol
-----------------------------------------------------------------------
Final Gibbs free energy         ...   -918.76979132 Eh

For completeness - the Gibbs free energy minus the electronic energy
G-E(el)                           ...      0.18972716 Eh    119.06 kcal/mol


Timings for individual modules:

Sum of individual times         ...     4918.920 sec (=  81.982 min)
GTO integral calculation        ...        9.569 sec (=   0.159 min)   0.2 %
SCF iterations                  ...     2001.653 sec (=  33.361 min)  40.7 %
SCF Gradient evaluation         ...      556.238 sec (=   9.271 min)  11.3 %
Geometry relaxation             ...        2.048 sec (=   0.034 min)   0.0 %
Analytical frequency calculation...     2349.412 sec (=  39.157 min)  47.8 %
                             ****ORCA TERMINATED NORMALLY****
TOTAL RUN TIME: 0 days 1 hours 22 minutes 5 seconds 813 msec
