
                                 *****************
                                 * O   R   C   A *
                                 *****************

                                            #,                                       
                                            ###                                      
                                            ####                                     
                                            #####                                    
                                            ######                                   
                                           ########,                                 
                                     ,,################,,,,,                         
                               ,,#################################,,                 
                          ,,##########################################,,             
                       ,#########################################, ''#####,          
                    ,#############################################,,   '####,        
                  ,##################################################,,,,####,       
                ,###########''''           ''''###############################       
              ,#####''   ,,,,##########,,,,          '''####'''          '####       
            ,##' ,,,,###########################,,,                        '##       
           ' ,,###''''                  '''############,,,                           
         ,,##''                                '''############,,,,        ,,,,,,###''
      ,#''                                            '''#######################'''  
     '                                                          ''''####''''         
             ,#######,   #######,   ,#######,      ##                                
            ,#'     '#,  ##    ##  ,#'     '#,    #''#        ######   ,####,        
            ##       ##  ##   ,#'  ##            #'  '#       #        #'  '#        
            ##       ##  #######   ##           ,######,      #####,   #    #        
            '#,     ,#'  ##    ##  '#,     ,#' ,#      #,         ##   #,  ,#        
             '#######'   ##     ##  '#######'  #'      '#     #####' # '####'        



                  #######################################################
                  #                        -***-                        #
                  #          Department of theory and spectroscopy      #
                  #    Directorship and core code : Frank Neese         #
                  #        Max Planck Institute fuer Kohlenforschung    #
                  #                Kaiser Wilhelm Platz 1               #
                  #                 D-45470 Muelheim/Ruhr               #
                  #                      Germany                        #
                  #                                                     #
                  #                  All rights reserved                #
                  #                        -***-                        #
                  #######################################################



                         Program Version 5.0.4 -  RELEASE  -

 With contributions from (in alphabetic order):
   Daniel Aravena         : Magnetic Suceptibility
   Michael Atanasov       : Ab Initio Ligand Field Theory (pilot matlab implementation)
   Alexander A. Auer      : GIAO ZORA, VPT2 properties, NMR spectrum
   Ute Becker             : Parallelization
   Giovanni Bistoni       : ED, misc. LED, open-shell LED, HFLD
   Martin Brehm           : Molecular dynamics
   Dmytro Bykov           : SCF Hessian
   Vijay G. Chilkuri      : MRCI spin determinant printing, contributions to CSF-ICE
   Dipayan Datta          : RHF DLPNO-CCSD density
   Achintya Kumar Dutta   : EOM-CC, STEOM-CC
   Dmitry Ganyushin       : Spin-Orbit,Spin-Spin,Magnetic field MRCI
   Miquel Garcia          : C-PCM and meta-GGA Hessian, CC/C-PCM, Gaussian charge scheme
   Yang Guo               : DLPNO-NEVPT2, F12-NEVPT2, CIM, IAO-localization
   Andreas Hansen         : Spin unrestricted coupled pair/coupled cluster methods
   Benjamin Helmich-Paris : MC-RPA, TRAH-SCF, COSX integrals
   Lee Huntington         : MR-EOM, pCC
   Robert Izsak           : Overlap fitted RIJCOSX, COSX-SCS-MP3, EOM
   Marcus Kettner         : VPT2
   Christian Kollmar      : KDIIS, OOCD, Brueckner-CCSD(T), CCSD density, CASPT2, CASPT2-K
   Simone Kossmann        : Meta GGA functionals, TD-DFT gradient, OOMP2, MP2 Hessian
   Martin Krupicka        : Initial AUTO-CI
   Lucas Lang             : DCDCAS
   Marvin Lechner         : AUTO-CI (C++ implementation), FIC-MRCC
   Dagmar Lenk            : GEPOL surface, SMD
   Dimitrios Liakos       : Extrapolation schemes; Compound Job, initial MDCI parallelization
   Dimitrios Manganas     : Further ROCIS development; embedding schemes
   Dimitrios Pantazis     : SARC Basis sets
   Anastasios Papadopoulos: AUTO-CI, single reference methods and gradients
   Taras Petrenko         : DFT Hessian,TD-DFT gradient, ASA, ECA, R-Raman, ABS, FL, XAS/XES, NRVS
   Peter Pinski           : DLPNO-MP2, DLPNO-MP2 Gradient
   Christoph Reimann      : Effective Core Potentials
   Marius Retegan         : Local ZFS, SOC
   Christoph Riplinger    : Optimizer, TS searches, QM/MM, DLPNO-CCSD(T), (RO)-DLPNO pert. Triples
   Tobias Risthaus        : Range-separated hybrids, TD-DFT gradient, RPA, STAB
   Michael Roemelt        : Original ROCIS implementation
   Masaaki Saitow         : Open-shell DLPNO-CCSD energy and density
   Barbara Sandhoefer     : DKH picture change effects
   Avijit Sen             : IP-ROCIS
   Kantharuban Sivalingam : CASSCF convergence, NEVPT2, FIC-MRCI
   Bernardo de Souza      : ESD, SOC TD-DFT
   Georgi Stoychev        : AutoAux, RI-MP2 NMR, DLPNO-MP2 response
   Willem Van den Heuvel  : Paramagnetic NMR
   Boris Wezisla          : Elementary symmetry handling
   Frank Wennmohs         : Technical directorship


 We gratefully acknowledge several colleagues who have allowed us to
 interface, adapt or use parts of their codes:
   Stefan Grimme, W. Hujo, H. Kruse, P. Pracht,  : VdW corrections, initial TS optimization,
                  C. Bannwarth, S. Ehlert          DFT functionals, gCP, sTDA/sTD-DF
   Ed Valeev, F. Pavosevic, A. Kumar             : LibInt (2-el integral package), F12 methods
   Garnet Chan, S. Sharma, J. Yang, R. Olivares  : DMRG
   Ulf Ekstrom                                   : XCFun DFT Library
   Mihaly Kallay                                 : mrcc  (arbitrary order and MRCC methods)
   Jiri Pittner, Ondrej Demel                    : Mk-CCSD
   Frank Weinhold                                : gennbo (NPA and NBO analysis)
   Christopher J. Cramer and Donald G. Truhlar   : smd solvation model
   Lars Goerigk                                  : TD-DFT with DH, B97 family of functionals
   V. Asgeirsson, H. Jonsson                     : NEB implementation
   FAccTs GmbH                                   : IRC, NEB, NEB-TS, DLPNO-Multilevel, CI-OPT
                                                   MM, QMMM, 2- and 3-layer-ONIOM, Crystal-QMMM,
                                                   LR-CPCM, SF, NACMEs, symmetry and pop. for TD-DFT,
                                                   nearIR, NL-DFT gradient (VV10), updates on ESD,
                                                   ML-optimized integration grids
   S Lehtola, MJT Oliveira, MAL Marques          : LibXC Library
   Liviu Ungur et al                             : ANISO software


 Your calculation uses the libint2 library for the computation of 2-el integrals
 For citations please refer to: http://libint.valeyev.net

 Your ORCA version has been built with support for libXC version: 5.1.0
 For citations please refer to: https://tddft.org/programs/libxc/

 This ORCA versions uses:
   CBLAS   interface :  Fast vector & matrix operations
   LAPACKE interface :  Fast linear algebra routines
   Shared memory     :  Shared parallel matrices


XCFun DFT library Copyright 2009-2010 Ulf Ekstrom and contributors.
See http://admol.org/xcfun for more information.
This is free software; see the source code for copying conditions.
There is ABSOLUTELY NO WARRANTY; not even for MERCHANTABILITY or FITNESS FOR A PARTICULAR PURPOSE.
For details see the documentation.
Scientific users of this library should cite U. Ekstrom, L. Visscher, R. Bast, A. J. Thorvaldsen and K. Ruud;
J.Chem.Theor.Comp. 2010, DOI: 10.1021/ct100117s
XCFun Version 0.99 

================================================================================

----- Orbital basis set information -----
Your calculation utilizes the basis: def2-TZVP
   F. Weigend and R. Ahlrichs, Phys. Chem. Chem. Phys. 7, 3297 (2005).

----- AuxJ basis set information -----
Your calculation utilizes the auxiliary basis: def2/J
   F. Weigend, Phys. Chem. Chem. Phys. 8, 1057 (2006).

================================================================================
                                        WARNINGS
                       Please study these warnings very carefully!
================================================================================


WARNING: Geometry Optimization
  ===> : Switching off AutoStart
         For restart on a previous wavefunction, please use MOREAD

WARNING: Minnesota functionals are quite sensitive to the integration grid.
         see SE Wheeler, KN Houk, JCTC 2010, 6, 395,
             N Mardirossian, M Head-Gordon, JCTC 2016, 12, 4303.
         DEFGRID3 seems to be a minimum grid for reliable results with these functionals!
  ===> : Please increase the integration grid!


INFO   : the flag for use of the SHARK integral package has been found!

================================================================================
                                       INPUT FILE
================================================================================
NAME = five_six_two_one_ten_seven_loss.inp
|  1> !M062x def2-tzvp opt freq tightscf
|  2> 
|  3> %freq
|  4> Temp 298.15,10,20,50,100,6000,8000,10000
|  5> end
|  6> 
|  7> %maxcore 4000
|  8> %pal
|  9> nprocs 3
| 10> end
| 11> 
| 12> %geom
| 13>  maxiter 2000
| 14> end
| 15> 
| 16> * xyz 0 1
| 17>   C   2.46362427987247     -2.85071308273857     -0.00000218907091
| 18>   C   1.27719400513090     -3.52585311672403     -0.00003902795947
| 19>   C   0.05064934326115     -2.82613554872827     -0.00011828018749
| 20>   C   -1.19925193688694     -3.46606389677068     -0.00015928151260
| 21>   C   -2.39885271805658     -2.87183824187673     -0.00023283554738
| 22>   C   -2.43518053153382     -1.44080024452875     -0.00027277196623
| 23>   C   -3.66777674509120     -0.75191121775761     -0.00034379554662
| 24>   C   -3.71279324924276      0.61270000430768     -0.00038290810371
| 25>   C   -2.51870888891228      1.35470401292599     -0.00035207453727
| 26>   C   -2.33852946574720      2.75004532075493     -0.00038523866368
| 27>   C   -1.29227857579710      3.37936032270345     -0.00036005870682
| 28>   C   0.02296635156368      2.87874227377718     -0.00029143038758
| 29>   C   1.23211767469076      3.59211777508479     -0.00026457178571
| 30>   C   2.42594730830480      2.92563510630820     -0.00019121984698
| 31>   C   2.44893445959464      1.52227723319545     -0.00014614397662
| 32>   C   3.55845924150033      0.65762020353451     -0.00006795876215
| 33>   C   3.57066637986837     -0.56331157183495     -0.00002324805222
| 34>   C   2.47403114247392     -1.44414615823703     -0.00004617494814
| 35>   C   1.25557023434205     -0.69183165762109     -0.00012491861115
| 36>   C   1.23800989899349      0.75081893774134     -0.00017659337158
| 37>   C   -0.00359548669936      1.44369816359284     -0.00024809051538
| 38>   C   -1.24385874208543      0.70472511229996     -0.00028011039122
| 39>   C   -1.22033926149096     -0.71624674943317     -0.00023589301594
| 40>   C   0.03056944314590     -1.40895937212992     -0.00016349124726
| 41>   H   3.40592714860256     -3.38099880595279      0.00006084796734
| 42>   H   1.25543248807529     -4.60779790743838     -0.00000593698860
| 43>   H   -3.32874432396662     -3.42840544994019     -0.00026138694326
| 44>   H   -4.58380467774224     -1.32989113444890     -0.00036599782084
| 45>   H   1.19941226127863      4.67287271493635     -0.00030009286005
| 46>   H   3.36338199069149      3.46449630946482     -0.00016807868239
| 47> **                         ****END OF INPUT****
================================================================================

                       *****************************
                       * Geometry Optimization Run *
                       *****************************

Geometry optimization settings:
Update method            Update   .... BFGS
Choice of coordinates    CoordSys .... Z-matrix Internals
Initial Hessian          InHess   .... Almoef's Model

Convergence Tolerances:
Energy Change            TolE     ....  5.0000e-06 Eh
Max. Gradient            TolMAXG  ....  3.0000e-04 Eh/bohr
RMS Gradient             TolRMSG  ....  1.0000e-04 Eh/bohr
Max. Displacement        TolMAXD  ....  4.0000e-03 bohr
RMS Displacement         TolRMSD  ....  2.0000e-03 bohr
Strict Convergence                ....  False
------------------------------------------------------------------------------
                        ORCA OPTIMIZATION COORDINATE SETUP
------------------------------------------------------------------------------

The optimization will be done in new redundant internal coordinates
Making redundant internal coordinates   ...  (new redundants) done
Evaluating the initial hessian          ...  (Almloef) done
Evaluating the coordinates              ...  done
Calculating the B-matrix                .... done
Calculating the G-matrix                .... done
Diagonalizing the G-matrix              .... done
The first mode is                       ....  110
The number of degrees of freedom        ....   84

    -----------------------------------------------------------------
                    Redundant Internal Coordinates


    -----------------------------------------------------------------
         Definition                    Initial Value    Approx d2E/dq
    -----------------------------------------------------------------
      1. B(C   1,C   0)                  1.3651         0.684706   
      2. B(C   2,C   1)                  1.4121         0.576083   
      3. B(C   3,C   2)                  1.4042         0.593052   
      4. B(C   4,C   3)                  1.3387         0.754341   
      5. B(C   5,C   4)                  1.4315         0.536450   
      6. B(C   6,C   5)                  1.4120         0.576199   
      7. B(C   7,C   6)                  1.3654         0.684007   
      8. B(C   8,C   7)                  1.4058         0.589461   
      9. B(C   9,C   8)                  1.4069         0.587129   
     10. B(C  10,C   9)                  1.2209         1.162716   
     11. B(C  11,C  10)                  1.4073         0.586328   
     12. B(C  12,C  11)                  1.4039         0.593680   
     13. B(C  13,C  12)                  1.3673         0.679207   
     14. B(C  14,C  13)                  1.4035         0.594465   
     15. B(C  15,C  14)                  1.4067         0.587716   
     16. B(C  16,C  15)                  1.2210         1.162462   
     17. B(C  17,C  16)                  1.4066         0.587868   
     18. B(C  17,C   0)                  1.4066         0.587822   
     19. B(C  18,C  17)                  1.4320         0.535464   
     20. B(C  19,C  18)                  1.4428         0.514716   
     21. B(C  19,C  14)                  1.4358         0.528065   
     22. B(C  20,C  19)                  1.4219         0.555801   
     23. B(C  20,C  11)                  1.4353         0.529031   
     24. B(C  21,C  20)                  1.4437         0.512894   
     25. B(C  21,C   8)                  1.4310         0.537466   
     26. B(C  22,C  21)                  1.4212         0.557204   
     27. B(C  22,C   5)                  1.4145         0.571014   
     28. B(C  23,C  22)                  1.4299         0.539604   
     29. B(C  23,C  18)                  1.4195         0.560685   
     30. B(C  23,C   2)                  1.4173         0.565137   
     31. B(H  24,C   0)                  1.0813         0.371840   
     32. B(H  25,C   1)                  1.0822         0.370617   
     33. B(H  26,C   4)                  1.0837         0.368494   
     34. B(H  27,C   6)                  1.0831         0.369305   
     35. B(H  28,C  12)                  1.0812         0.371864   
     36. B(H  29,C  13)                  1.0813         0.371829   
     37. A(C  17,C   0,H  24)          118.9449         0.351645   
     38. A(C   1,C   0,C  17)          120.0660         0.437675   
     39. A(C   1,C   0,H  24)          120.9890         0.360873   
     40. A(C   0,C   1,H  25)          120.7944         0.360670   
     41. A(C   2,C   1,H  25)          118.5516         0.350254   
     42. A(C   0,C   1,C   2)          120.6541         0.436087   
     43. A(C   1,C   2,C  23)          120.5156         0.421333   
     44. A(C   1,C   2,C   3)          123.1845         0.424979   
     45. A(C   3,C   2,C  23)          116.2999         0.423524   
     46. A(C   2,C   3,C   4)          126.5367         0.446119   
     47. A(C   3,C   4,H  26)          122.7466         0.366330   
     48. A(C   5,C   4,H  26)          119.4476         0.345739   
     49. A(C   3,C   4,C   5)          117.8058         0.438102   
     50. A(C   4,C   5,C  22)          119.3584         0.416781   
     51. A(C   6,C   5,C  22)          119.9869         0.422127   
     52. A(C   4,C   5,C   6)          120.6547         0.417452   
     53. A(C   5,C   6,C   7)          121.0899         0.436023   
     54. A(C   7,C   6,H  27)          120.3610         0.360389   
     55. A(C   5,C   6,H  27)          118.5491         0.350056   
     56. A(C   6,C   7,C   8)          119.9674         0.437815   
     57. A(C   9,C   8,C  21)          109.6568         0.418993   
     58. A(C   7,C   8,C   9)          129.2147         0.425963   
     59. A(C   7,C   8,C  21)          121.1285         0.419290   
     60. A(C   8,C   9,C  10)          128.3846         0.481967   
     61. A(C   9,C  10,C  11)          128.1351         0.481846   
     62. A(C  12,C  11,C  20)          121.6002         0.418641   
     63. A(C  10,C  11,C  20)          109.7778         0.417713   
     64. A(C  10,C  11,C  12)          128.6220         0.426403   
     65. A(C  11,C  12,H  28)          118.8064         0.352239   
     66. A(C  11,C  12,C  13)          120.2868         0.437822   
     67. A(C  13,C  12,H  28)          120.9068         0.360381   
     68. A(C  14,C  13,H  29)          118.9530         0.352312   
     69. A(C  12,C  13,H  29)          120.9352         0.360375   
     70. A(C  12,C  13,C  14)          120.1119         0.437926   
     71. A(C  13,C  14,C  15)          128.8679         0.426685   
     72. A(C  15,C  14,C  19)          109.5701         0.417752   
     73. A(C  13,C  14,C  19)          121.5621         0.418603   
     74. A(C  14,C  15,C  16)          128.5023         0.482036   
     75. A(C  15,C  16,C  17)          128.1991         0.482060   
     76. A(C  16,C  17,C  18)          109.5356         0.418809   
     77. A(C   0,C  17,C  18)          121.2685         0.418803   
     78. A(C   0,C  17,C  16)          129.1959         0.425847   
     79. A(C  17,C  18,C  19)          122.3898         0.409037   
     80. A(C  19,C  18,C  23)          119.6477         0.412388   
     81. A(C  17,C  18,C  23)          117.9624         0.415293   
     82. A(C  18,C  19,C  20)          119.8611         0.411748   
     83. A(C  14,C  19,C  20)          118.3358         0.413624   
     84. A(C  14,C  19,C  18)          121.8031         0.408030   
     85. A(C  11,C  20,C  19)          118.1034         0.413758   
     86. A(C  19,C  20,C  21)          120.0489         0.411489   
     87. A(C  11,C  20,C  21)          121.8477         0.407906   
     88. A(C  20,C  21,C  22)          119.8391         0.411673   
     89. A(C   8,C  21,C  22)          117.9629         0.415109   
     90. A(C   8,C  21,C  20)          122.1981         0.409050   
     91. A(C  21,C  22,C  23)          119.9245         0.415402   
     92. A(C   5,C  22,C  23)          120.2111         0.417216   
     93. A(C   5,C  22,C  21)          119.8644         0.419609   
     94. A(C  18,C  23,C  22)          120.6786         0.415863   
     95. A(C   2,C  23,C  22)          119.7880         0.416448   
     96. A(C   2,C  23,C  18)          119.5334         0.419301   
     97. D(C   2,C   1,C   0,H  24)    179.9999         0.032899   
     98. D(H  25,C   1,C   0,C  17)    180.0000         0.032899   
     99. D(C   2,C   1,C   0,C  17)     -0.0001         0.032899   
    100. D(H  25,C   1,C   0,H  24)     -0.0000         0.032899   
    101. D(C  23,C   2,C   1,H  25)    180.0000         0.022787   
    102. D(C   3,C   2,C   1,C   0)    180.0000         0.022787   
    103. D(C   3,C   2,C   1,H  25)     -0.0001         0.022787   
    104. D(C  23,C   2,C   1,C   0)      0.0001         0.022787   
    105. D(C   4,C   3,C   2,C   1)    179.9999         0.021974   
    106. D(C   4,C   3,C   2,C  23)     -0.0002         0.021974   
    107. D(H  26,C   4,C   3,C   2)    180.0000         0.036764   
    108. D(C   5,C   4,C   3,C   2)     -0.0001         0.036764   
    109. D(C  22,C   5,C   4,H  26)   -180.0000         0.019656   
    110. D(C   6,C   5,C   4,H  26)      0.0002         0.019656   
    111. D(C  22,C   5,C   4,C   3)      0.0001         0.019656   
    112. D(C   6,C   5,C   4,C   3)   -179.9997         0.019656   
    113. D(H  27,C   6,C   5,C  22)   -179.9997         0.022796   
    114. D(H  27,C   6,C   5,C   4)      0.0001         0.022796   
    115. D(C   7,C   6,C   5,C   4)   -180.0000         0.022796   
    116. D(C   7,C   6,C   5,C  22)      0.0002         0.022796   
    117. D(C   8,C   7,C   6,H  27)    179.9999         0.029735   
    118. D(C   8,C   7,C   6,C   5)     -0.0000         0.029735   
    119. D(C  21,C   8,C   7,C   6)      0.0000         0.021697   
    120. D(C   9,C   8,C   7,C   6)    179.9999         0.021697   
    121. D(C  10,C   9,C   8,C  21)     -0.0000         0.021519   
    122. D(C  10,C   9,C   8,C   7)   -179.9999         0.021519   
    123. D(C  11,C  10,C   9,C   8)      0.0000         0.086136   
    124. D(C  20,C  11,C  10,C   9)     -0.0001         0.021458   
    125. D(C  12,C  11,C  10,C   9)    179.9999         0.021458   
    126. D(C  13,C  12,C  11,C  10)    179.9998         0.024270   
    127. D(C  13,C  12,C  11,C  20)     -0.0002         0.024270   
    128. D(H  28,C  12,C  11,C  20)    180.0000         0.024270   
    129. D(H  28,C  12,C  11,C  10)     -0.0001         0.024270   
    130. D(H  29,C  13,C  12,H  28)     -0.0001         0.032332   
    131. D(H  29,C  13,C  12,C  11)   -179.9999         0.032332   
    132. D(C  14,C  13,C  12,C  11)      0.0002         0.032332   
    133. D(C  14,C  13,C  12,H  28)   -180.0000         0.032332   
    134. D(C  19,C  14,C  13,H  29)   -179.9999         0.024338   
    135. D(C  19,C  14,C  13,C  12)      0.0001         0.024338   
    136. D(C  15,C  14,C  13,C  12)   -179.9999         0.024338   
    137. D(C  15,C  14,C  13,H  29)      0.0002         0.024338   
    138. D(C  16,C  15,C  14,C  13)    179.9996         0.021564   
    139. D(C  16,C  15,C  14,C  19)     -0.0003         0.021564   
    140. D(C  17,C  16,C  15,C  14)      0.0004         0.086092   
    141. D(C  18,C  17,C  16,C  15)     -0.0004         0.021575   
    142. D(C   0,C  17,C  16,C  15)    179.9997         0.021575   
    143. D(C  18,C  17,C   0,H  24)   -179.9998         0.023770   
    144. D(C  18,C  17,C   0,C   1)      0.0002         0.023770   
    145. D(C  16,C  17,C   0,H  24)      0.0002         0.023770   
    146. D(C  16,C  17,C   0,C   1)   -179.9998         0.023770   
    147. D(C  23,C  18,C  17,C  16)    179.9998         0.019582   
    148. D(C  23,C  18,C  17,C   0)     -0.0003         0.019582   
    149. D(C  19,C  18,C  17,C  16)      0.0003         0.019582   
    150. D(C  19,C  18,C  17,C   0)   -179.9998         0.019582   
    151. D(C  20,C  19,C  18,C  23)      0.0008         0.018061   
    152. D(C  20,C  19,C  18,C  17)   -179.9997         0.018061   
    153. D(C  14,C  19,C  18,C  23)   -179.9997         0.018061   
    154. D(C  14,C  19,C  18,C  17)     -0.0003         0.018061   
    155. D(C  20,C  19,C  14,C  15)    179.9997         0.019030   
    156. D(C  20,C  19,C  14,C  13)     -0.0003         0.019030   
    157. D(C  18,C  19,C  14,C  15)      0.0002         0.019030   
    158. D(C  18,C  19,C  14,C  13)   -179.9997         0.019030   
    159. D(C  19,C  20,C  11,C  10)    180.0000         0.019102   
    160. D(C  21,C  20,C  19,C  18)     -0.0005         0.021148   
    161. D(C  21,C  20,C  19,C  14)   -180.0000         0.021148   
    162. D(C  11,C  20,C  19,C  18)    179.9997         0.021148   
    163. D(C  11,C  20,C  19,C  14)      0.0002         0.021148   
    164. D(C  21,C  20,C  11,C  12)   -179.9998         0.019102   
    165. D(C  21,C  20,C  11,C  10)      0.0002         0.019102   
    166. D(C  19,C  20,C  11,C  12)     -0.0000         0.019102   
    167. D(C  22,C  21,C  20,C  19)      0.0002         0.017931   
    168. D(C  22,C  21,C  20,C  11)    180.0000         0.017931   
    169. D(C   8,C  21,C  20,C  19)   -180.0000         0.017931   
    170. D(C   8,C  21,C  20,C  11)     -0.0002         0.017931   
    171. D(C  22,C  21,C   8,C   9)    179.9999         0.019733   
    172. D(C  22,C  21,C   8,C   7)     -0.0002         0.019733   
    173. D(C  20,C  21,C   8,C   9)      0.0001         0.019733   
    174. D(C  20,C  21,C   8,C   7)    180.0000         0.019733   
    175. D(C  23,C  22,C  21,C  20)     -0.0002         0.021259   
    176. D(C  23,C  22,C  21,C   8)   -180.0000         0.021259   
    177. D(C   5,C  22,C  21,C  20)   -179.9997         0.021259   
    178. D(C   5,C  22,C  21,C   8)      0.0004         0.021259   
    179. D(C  23,C  22,C   5,C   6)    180.0000         0.022370   
    180. D(C  23,C  22,C   5,C   4)      0.0002         0.022370   
    181. D(C  21,C  22,C   5,C   6)     -0.0004         0.022370   
    182. D(C  21,C  22,C   5,C   4)    179.9998         0.022370   
    183. D(C  18,C  23,C  22,C  21)      0.0005         0.019895   
    184. D(C  18,C  23,C  22,C   5)   -180.0000         0.019895   
    185. D(C   2,C  23,C  22,C  21)    179.9999         0.019895   
    186. D(C   2,C  23,C  22,C   5)     -0.0005         0.019895   
    187. D(C  22,C  23,C  18,C  19)     -0.0008         0.021536   
    188. D(C  22,C  23,C  18,C  17)    179.9997         0.021536   
    189. D(C   2,C  23,C  18,C  19)    179.9997         0.021536   
    190. D(C   2,C  23,C  18,C  17)      0.0002         0.021536   
    191. D(C  22,C  23,C   2,C   3)      0.0005         0.021893   
    192. D(C  22,C  23,C   2,C   1)   -179.9996         0.021893   
    193. D(C  18,C  23,C   2,C   3)    179.9999         0.021893   
    194. D(C  18,C  23,C   2,C   1)     -0.0002         0.021893   
    -----------------------------------------------------------------

Number of atoms                         .... 30
Number of degrees of freedom            .... 194

         *************************************************************
         *                GEOMETRY OPTIMIZATION CYCLE   1            *
         *************************************************************
---------------------------------
CARTESIAN COORDINATES (ANGSTROEM)
---------------------------------
  C      2.463624   -2.850713   -0.000002
  C      1.277194   -3.525853   -0.000039
  C      0.050649   -2.826136   -0.000118
  C     -1.199252   -3.466064   -0.000159
  C     -2.398853   -2.871838   -0.000233
  C     -2.435181   -1.440800   -0.000273
  C     -3.667777   -0.751911   -0.000344
  C     -3.712793    0.612700   -0.000383
  C     -2.518709    1.354704   -0.000352
  C     -2.338529    2.750045   -0.000385
  C     -1.292279    3.379360   -0.000360
  C      0.022966    2.878742   -0.000291
  C      1.232118    3.592118   -0.000265
  C      2.425947    2.925635   -0.000191
  C      2.448934    1.522277   -0.000146
  C      3.558459    0.657620   -0.000068
  C      3.570666   -0.563312   -0.000023
  C      2.474031   -1.444146   -0.000046
  C      1.255570   -0.691832   -0.000125
  C      1.238010    0.750819   -0.000177
  C     -0.003595    1.443698   -0.000248
  C     -1.243859    0.704725   -0.000280
  C     -1.220339   -0.716247   -0.000236
  C      0.030569   -1.408959   -0.000163
  H      3.405927   -3.380999    0.000061
  H      1.255432   -4.607798   -0.000006
  H     -3.328744   -3.428405   -0.000261
  H     -4.583805   -1.329891   -0.000366
  H      1.199412    4.672873   -0.000300
  H      3.363382    3.464496   -0.000168

----------------------------
CARTESIAN COORDINATES (A.U.)
----------------------------
  NO LB      ZA    FRAG     MASS         X           Y           Z
   0 C     6.0000    0    12.011    4.655575   -5.387067   -0.000004
   1 C     6.0000    0    12.011    2.413547   -6.662897   -0.000074
   2 C     6.0000    0    12.011    0.095713   -5.340622   -0.000224
   3 C     6.0000    0    12.011   -2.266258   -6.549912   -0.000301
   4 C     6.0000    0    12.011   -4.533175   -5.426988   -0.000440
   5 C     6.0000    0    12.011   -4.601824   -2.722718   -0.000515
   6 C     6.0000    0    12.011   -6.931094   -1.420906   -0.000650
   7 C     6.0000    0    12.011   -7.016162    1.157835   -0.000724
   8 C     6.0000    0    12.011   -4.759670    2.560020   -0.000665
   9 C     6.0000    0    12.011   -4.419180    5.196833   -0.000728
  10 C     6.0000    0    12.011   -2.442053    6.386066   -0.000680
  11 C     6.0000    0    12.011    0.043400    5.440035   -0.000551
  12 C     6.0000    0    12.011    2.328365    6.788119   -0.000500
  13 C     6.0000    0    12.011    4.584376    5.528649   -0.000361
  14 C     6.0000    0    12.011    4.627815    2.876687   -0.000276
  15 C     6.0000    0    12.011    6.724513    1.242722   -0.000128
  16 C     6.0000    0    12.011    6.747582   -1.064505   -0.000044
  17 C     6.0000    0    12.011    4.675241   -2.729041   -0.000087
  18 C     6.0000    0    12.011    2.372684   -1.307372   -0.000236
  19 C     6.0000    0    12.011    2.339500    1.418842   -0.000334
  20 C     6.0000    0    12.011   -0.006794    2.728194   -0.000469
  21 C     6.0000    0    12.011   -2.350552    1.331737   -0.000529
  22 C     6.0000    0    12.011   -2.306107   -1.353510   -0.000446
  23 C     6.0000    0    12.011    0.057768   -2.662547   -0.000309
  24 H     1.0000    0     1.008    6.436270   -6.389162    0.000115
  25 H     1.0000    0     1.008    2.372424   -8.707476   -0.000011
  26 H     1.0000    0     1.008   -6.290415   -6.478747   -0.000494
  27 H     1.0000    0     1.008   -8.662135   -2.513130   -0.000692
  28 H     1.0000    0     1.008    2.266561    8.830450   -0.000567
  29 H     1.0000    0     1.008    6.355871    6.546949   -0.000318

--------------------------------
INTERNAL COORDINATES (ANGSTROEM)
--------------------------------
 C      0   0   0     0.000000000000     0.00000000     0.00000000
 C      1   0   0     1.365075405855     0.00000000     0.00000000
 C      2   1   0     1.412096487073   120.65405474     0.00000000
 C      3   2   1     1.404194253807   123.18448403   179.99999548
 C      4   3   2     1.338710636593   126.53667483   179.99993029
 C      5   4   3     1.431499026015   117.80582306     0.00000000
 C      6   5   4     1.412041614800   120.65468373   180.00031337
 C      7   6   5     1.365353534643   121.08992386   180.00002878
 C      8   7   6     1.405847576853   119.96739963     0.00000000
 C      9   8   7     1.406926434099   129.21466480   179.99985058
 C     10   9   8     1.220933371250   128.38455854   180.00014667
 C     11  10   9     1.407297997785   128.13510071     0.00000000
 C     12  11  10     1.403905811943   128.62204290   179.99986207
 C     13  12  11     1.367270400197   120.28679399   179.99978107
 C     14  13  12     1.403546127202   120.11186410     0.00000000
 C     15  14  13     1.406654551309   128.86785381   180.00012098
 C     16  15  14     1.220992799460   128.50226321   179.99964904
 C     17  16  15     1.406583951644   128.19913909     0.00000000
 C     18  17  16     1.432000034456   109.53559171     0.00000000
 C     15  14  13     1.435787656312   121.56205315     0.00000000
 C     20  15  14     1.421852861765   118.33577083     0.00000000
 C      9   8   7     1.430984092610   121.12854471     0.00000000
 C      6   5   4     1.414502414284   119.35844359     0.00000000
 C      3   2   1     1.417318425743   120.51560303     0.00000000
 H      1   2   3     1.081266687102   120.98903654   179.99985380
 H      2   1   3     1.082163617423   120.79436281   180.00013951
 H      5   4   3     1.083727574923   122.74660524   179.99997955
 H      7   6   5     1.083128781811   118.54907638     0.00000000
 H     13  12  11     1.081249686863   118.80643386     0.00000000
 H     14  13  12     1.081274794187   120.93518279   180.00011322

---------------------------
INTERNAL COORDINATES (A.U.)
---------------------------
 C      0   0   0     0.000000000000     0.00000000     0.00000000
 C      1   0   0     2.579618669217     0.00000000     0.00000000
 C      2   1   0     2.668475635240   120.65405474     0.00000000
 C      3   2   1     2.653542578522   123.18448403   179.99999548
 C      4   3   2     2.529796475728   126.53667483   179.99993029
 C      5   4   3     2.705141120143   117.80582306     0.00000000
 C      6   5   4     2.668371941671   120.65468373   180.00031337
 C      7   6   5     2.580144256457   121.08992386   180.00002878
 C      8   7   6     2.656666906288   119.96739963     0.00000000
 C      9   8   7     2.658705651021   129.21466480   179.99985058
 C     10   9   8     2.307229699428   128.38455854   180.00014667
 C     11  10   9     2.659407804629   128.13510071     0.00000000
 C     12  11  10     2.652997502393   128.62204290   179.99986207
 C     13  12  11     2.583766607389   120.28679399   179.99978107
 C     14  13  12     2.652317796738   120.11186410     0.00000000
 C     15  14  13     2.658191867008   128.86785381   180.00012098
 C     16  15  14     2.307342002469   128.50226321   179.99964904
 C     17  16  15     2.658058452976   128.19913909     0.00000000
 C     18  17  16     2.706087888888   109.53559171     0.00000000
 C     15  14  13     2.713245456895   121.56205315     0.00000000
 C     20  15  14     2.686912511468   118.33577083     0.00000000
 C      9   8   7     2.704168037030   121.12854471     0.00000000
 C      6   5   4     2.673022178767   119.35844359     0.00000000
 C      3   2   1     2.678343669215   120.51560303     0.00000000
 H      1   2   3     2.043297916354   120.98903654   179.99985380
 H      2   1   3     2.044992869023   120.79436281   180.00013951
 H      5   4   3     2.047948320383   122.74660524   179.99997955
 H      7   6   5     2.046816765391   118.54907638     0.00000000
 H     13  12  11     2.043265790560   118.80643386     0.00000000
 H     14  13  12     2.043313236526   120.93518279   180.00011322

---------------------
BASIS SET INFORMATION
---------------------
There are 2 groups of distinct atoms

 Group   1 Type C   : 11s6p2d1f contracted to 5s3p2d1f pattern {62111/411/11/1}
 Group   2 Type H   : 5s1p contracted to 3s1p pattern {311/1}

Atom   0C    basis set group =>   1
Atom   1C    basis set group =>   1
Atom   2C    basis set group =>   1
Atom   3C    basis set group =>   1
Atom   4C    basis set group =>   1
Atom   5C    basis set group =>   1
Atom   6C    basis set group =>   1
Atom   7C    basis set group =>   1
Atom   8C    basis set group =>   1
Atom   9C    basis set group =>   1
Atom  10C    basis set group =>   1
Atom  11C    basis set group =>   1
Atom  12C    basis set group =>   1
Atom  13C    basis set group =>   1
Atom  14C    basis set group =>   1
Atom  15C    basis set group =>   1
Atom  16C    basis set group =>   1
Atom  17C    basis set group =>   1
Atom  18C    basis set group =>   1
Atom  19C    basis set group =>   1
Atom  20C    basis set group =>   1
Atom  21C    basis set group =>   1
Atom  22C    basis set group =>   1
Atom  23C    basis set group =>   1
Atom  24H    basis set group =>   2
Atom  25H    basis set group =>   2
Atom  26H    basis set group =>   2
Atom  27H    basis set group =>   2
Atom  28H    basis set group =>   2
Atom  29H    basis set group =>   2
---------------------------------
AUXILIARY/J BASIS SET INFORMATION
---------------------------------
There are 2 groups of distinct atoms

 Group   1 Type C   : 12s5p4d2f1g contracted to 6s4p3d1f1g pattern {711111/2111/211/2/1}
 Group   2 Type H   : 5s2p1d contracted to 3s1p1d pattern {311/2/1}

Atom   0C    basis set group =>   1
Atom   1C    basis set group =>   1
Atom   2C    basis set group =>   1
Atom   3C    basis set group =>   1
Atom   4C    basis set group =>   1
Atom   5C    basis set group =>   1
Atom   6C    basis set group =>   1
Atom   7C    basis set group =>   1
Atom   8C    basis set group =>   1
Atom   9C    basis set group =>   1
Atom  10C    basis set group =>   1
Atom  11C    basis set group =>   1
Atom  12C    basis set group =>   1
Atom  13C    basis set group =>   1
Atom  14C    basis set group =>   1
Atom  15C    basis set group =>   1
Atom  16C    basis set group =>   1
Atom  17C    basis set group =>   1
Atom  18C    basis set group =>   1
Atom  19C    basis set group =>   1
Atom  20C    basis set group =>   1
Atom  21C    basis set group =>   1
Atom  22C    basis set group =>   1
Atom  23C    basis set group =>   1
Atom  24H    basis set group =>   2
Atom  25H    basis set group =>   2
Atom  26H    basis set group =>   2
Atom  27H    basis set group =>   2
Atom  28H    basis set group =>   2
Atom  29H    basis set group =>   2


           ************************************************************
           *        Program running with 3 parallel MPI-processes     *
           *              working on a common directory               *
           ************************************************************
------------------------------------------------------------------------------
                           ORCA GTO INTEGRAL CALCULATION
                           -- RI-GTO INTEGRALS CHOSEN --
------------------------------------------------------------------------------
------------------------------------------------------------------------------
                   ___                                                        
                  /   \      - P O W E R E D   B Y -                         
                 /     \                                                     
                 |  |  |   _    _      __       _____    __    __             
                 |  |  |  | |  | |    /  \     |  _  \  |  |  /  |          
                  \  \/   | |  | |   /    \    | | | |  |  | /  /          
                 / \  \   | |__| |  /  /\  \   | |_| |  |  |/  /          
                |  |  |   |  __  | /  /__\  \  |    /   |      \           
                |  |  |   | |  | | |   __   |  |    \   |  |\   \          
                \     /   | |  | | |  |  |  |  | |\  \  |  | \   \       
                 \___/    |_|  |_| |__|  |__|  |_| \__\ |__|  \__/        
                                                                              
                      - O R C A' S   B I G   F R I E N D -                    
                                      &                                       
                       - I N T E G R A L  F E E D E R -                       
                                                                              
 v1 FN, 2020, v2 2021                                                         
------------------------------------------------------------------------------


Reading SHARK input file five_six_two_one_ten_seven_loss.SHARKINP.tmp ... ok
----------------------
SHARK INTEGRAL PACKAGE
----------------------

Number of atoms                             ...     30
Number of basis functions                   ...    780
Number of shells                            ...    288
Maximum angular momentum                    ...      3
Integral batch strategy                     ... SHARK/LIBINT Hybrid
RI-J (if used) integral strategy            ... SPLIT-RIJ (Revised 2003 algorithm where possible)
Printlevel                                  ...      1
Contraction scheme used                     ... SEGMENTED contraction
Coulomb Range Separation                    ... NOT USED
Exchange Range Separation                   ... NOT USED
Finite Nucleus Model                        ... NOT USED
Auxiliary Coulomb fitting basis             ... AVAILABLE
   # of basis functions in Aux-J            ...   1242
   # of shells in Aux-J                     ...    390
   Maximum angular momentum in Aux-J        ...      4
Auxiliary J/K fitting basis                 ... NOT available
Auxiliary Correlation fitting basis         ... NOT available
Auxiliary 'external' fitting basis          ... NOT available
Integral threshold                          ...     2.500000e-11
Primitive cut-off                           ...     2.500000e-12
Primitive pair pre-selection threshold      ...     2.500000e-12

Calculating pre-screening integrals         ... done (  0.2 sec) Dimension = 288
Organizing shell pair data                  ... done (  0.7 sec)
Shell pair information
Total number of shell pairs                 ...     41616
Shell pairs after pre-screening             ...     32530
Total number of primitive shell pairs       ...    133932
Primitive shell pairs kept                  ...     69765
          la=0 lb=0:   6872 shell pairs
          la=1 lb=0:   8823 shell pairs
          la=1 lb=1:   2735 shell pairs
          la=2 lb=0:   5003 shell pairs
          la=2 lb=1:   3177 shell pairs
          la=2 lb=2:    935 shell pairs
          la=3 lb=0:   2340 shell pairs
          la=3 lb=1:   1545 shell pairs
          la=3 lb=2:    874 shell pairs
          la=3 lb=3:    226 shell pairs

Calculating one electron integrals          ... done (  0.2 sec)
Calculating RI/J V-Matrix + Cholesky decomp.... done (  0.3 sec)
Calculating Nuclear repulsion               ... done (  0.0 sec) ENN=   1727.174459994744 Eh

SHARK setup successfully completed in   2.6 seconds

Maximum memory used throughout the entire GTOINT-calculation: 51.7 MB


           ************************************************************
           *        Program running with 3 parallel MPI-processes     *
           *              working on a common directory               *
           ************************************************************
-------------------------------------------------------------------------------
                                 ORCA SCF
-------------------------------------------------------------------------------

------------
SCF SETTINGS
------------
Hamiltonian:
 Density Functional     Method          .... DFT(GTOs)
 Exchange Functional    Exchange        .... M062X
 Correlation Functional Correlation     .... M062X
 Gradients option       PostSCFGGA      .... off
 Hybrid DFT is turned on
   Fraction HF Exchange ScalHFX         ....  0.540000
   Scaling of DF-GGA-X  ScalDFX         ....  0.460000
   Scaling of DF-GGA-C  ScalDFC         ....  1.000000
   Scaling of DF-LDA-C  ScalLDAC        ....  1.000000
   Perturbative correction              ....  0.000000
   Density functional embedding theory  .... OFF
 RI-approximation to the Coulomb term is turned on
   Number of AuxJ basis functions       .... 1242
   RIJ-COSX (HFX calculated with COS-X)).... on


General Settings:
 Integral files         IntName         .... five_six_two_one_ten_seven_loss
 Hartree-Fock type      HFTyp           .... RHF
 Total Charge           Charge          ....    0
 Multiplicity           Mult            ....    1
 Number of Electrons    NEL             ....  150
 Basis Dimension        Dim             ....  780
 Nuclear Repulsion      ENuc            ....   1727.1744599947 Eh

Convergence Acceleration:
 DIIS                   CNVDIIS         .... on
   Start iteration      DIISMaxIt       ....    12
   Startup error        DIISStart       ....  0.200000
   # of expansion vecs  DIISMaxEq       ....     5
   Bias factor          DIISBfac        ....   1.050
   Max. coefficient     DIISMaxC        ....  10.000
 Trust-Rad. Augm. Hess. CNVTRAH         .... auto
   Auto Start mean grad. ratio tolernc. ....  1.125000
   Auto Start start iteration           ....    20
   Auto Start num. interpolation iter.  ....    10
   Max. Number of Micro iterations      ....    16
   Max. Number of Macro iterations      .... Maxiter - #DIIS iter
   Number of Davidson start vectors     ....     2
   Converg. threshold I  (grad. norm)   ....   1.000e-05
   Converg. threshold II (energy diff.) ....   1.000e-08
   Grad. Scal. Fac. for Micro threshold ....   0.100
   Minimum threshold for Micro iter.    ....   0.010
   NR start threshold (gradient norm)   ....   0.001
   Initial trust radius                 ....   0.400
   Minimum AH scaling param. (alpha)    ....   1.000
   Maximum AH scaling param. (alpha)    .... 1000.000
   Orbital update algorithm             .... Taylor
   White noise on init. David. guess    .... on
   Maximum white noise                  ....   0.010
   Quad. conv. algorithm                .... NR
 SOSCF                  CNVSOSCF        .... on
   Start iteration      SOSCFMaxIt      ....   150
   Startup grad/error   SOSCFStart      ....  0.003300
 Level Shifting         CNVShift        .... on
   Level shift para.    LevelShift      ....    0.2500
   Turn off err/grad.   ShiftErr        ....    0.0010
 Zerner damping         CNVZerner       .... off
 Static damping         CNVDamp         .... on
   Fraction old density DampFac         ....    0.7000
   Max. Damping (<1)    DampMax         ....    0.9800
   Min. Damping (>=0)   DampMin         ....    0.0000
   Turn off err/grad.   DampErr         ....    0.1000
 Fernandez-Rico         CNVRico         .... off

SCF Procedure:
 Maximum # iterations   MaxIter         ....   125
 SCF integral mode      SCFMode         .... Direct
   Integral package                     .... SHARK and LIBINT hybrid scheme
 Reset frequency        DirectResetFreq ....    20
 Integral Threshold     Thresh          ....  2.500e-11 Eh
 Primitive CutOff       TCut            ....  2.500e-12 Eh

Convergence Tolerance:
 Convergence Check Mode ConvCheckMode   .... Total+1el-Energy
 Convergence forced     ConvForced      .... 0
 Energy Change          TolE            ....  1.000e-08 Eh
 1-El. energy change                    ....  1.000e-05 Eh
 Orbital Gradient       TolG            ....  1.000e-05
 Orbital Rotation angle TolX            ....  1.000e-05
 DIIS Error             TolErr          ....  5.000e-07


Diagonalization of the overlap matrix:
Smallest eigenvalue                        ... 7.608e-07
Time for diagonalization                   ...    0.242 sec
Threshold for overlap eigenvalues          ... 1.000e-08
Number of eigenvalues below threshold      ... 0
Time for construction of square roots      ...    0.077 sec
Total time needed                          ...    0.323 sec

Time for model grid setup =    0.683 sec

------------------------------
INITIAL GUESS: MODEL POTENTIAL
------------------------------
Loading Hartree-Fock densities                     ... done
Calculating cut-offs                               ... done
Initializing the effective Hamiltonian             ... done
Setting up the integral package (SHARK)            ... done
Starting the Coulomb interaction                   ... done (   1.4 sec)
Reading the grid                                   ... done
Mapping shells                                     ... done
Starting the XC term evaluation                    ... done (   1.3 sec)
  promolecular density results
     # of electrons  =    149.982766804
     EX              =   -124.527975286
     EC              =     -5.081203645
     EX+EC           =   -129.609178931
Transforming the Hamiltonian                       ... done (   0.1 sec)
Diagonalizing the Hamiltonian                      ... done (   0.1 sec)
Back transforming the eigenvectors                 ... done (   0.0 sec)
Now organizing SCF variables                       ... done
                      ------------------
                      INITIAL GUESS DONE (   3.7 sec)
                      ------------------
-------------------
DFT GRID GENERATION
-------------------

General Integration Accuracy     IntAcc      ... 4.388
Radial Grid Type                 RadialGrid  ... OptM3 with GC (2021)
Angular Grid (max. ang.)         AngularGrid ... 4 (Lebedev-302)
Angular grid pruning method      GridPruning ... 4 (adaptive)
Weight generation scheme         WeightScheme... Becke
Basis function cutoff            BFCut       ... 1.0000e-11
Integration weight cutoff        WCut        ... 1.0000e-14
Angular grids for H and He will be reduced by one unit
Partially contracted basis set               ... off
Rotationally invariant grid construction     ... off

Total number of grid points                  ...   161665
Total number of batches                      ...     2540
Average number of points per batch           ...       63
Average number of grid points per atom       ...     5389
Time for grid setup =    1.780 sec

--------------------
COSX GRID GENERATION
--------------------

GRIDX 1
-------
General Integration Accuracy     IntAcc      ... 3.816
Radial Grid Type                 RadialGrid  ... OptM3 with GC (2021)
Angular Grid (max. ang.)         AngularGrid ... 1 (Lebedev-50)
Angular grid pruning method      GridPruning ... 4 (adaptive)
Weight generation scheme         WeightScheme... Becke
Basis function cutoff            BFCut       ... 1.0000e-11
Integration weight cutoff        WCut        ... 1.0000e-14
Angular grids for H and He will be reduced by one unit
Partially contracted basis set               ... on
Rotationally invariant grid construction     ... off

Total number of grid points                  ...    20509
Total number of batches                      ...      334
Average number of points per batch           ...       61
Average number of grid points per atom       ...      684
UseSFitting                                  ... on

GRIDX 2
-------
General Integration Accuracy     IntAcc      ... 4.020
Radial Grid Type                 RadialGrid  ... OptM3 with GC (2021)
Angular Grid (max. ang.)         AngularGrid ... 2 (Lebedev-110)
Angular grid pruning method      GridPruning ... 4 (adaptive)
Weight generation scheme         WeightScheme... Becke
Basis function cutoff            BFCut       ... 1.0000e-11
Integration weight cutoff        WCut        ... 1.0000e-14
Angular grids for H and He will be reduced by one unit
Partially contracted basis set               ... on
Rotationally invariant grid construction     ... off

Total number of grid points                  ...    46270
Total number of batches                      ...      738
Average number of points per batch           ...       62
Average number of grid points per atom       ...     1542
UseSFitting                                  ... on

GRIDX 3
-------
General Integration Accuracy     IntAcc      ... 4.338
Radial Grid Type                 RadialGrid  ... OptM3 with GC (2021)
Angular Grid (max. ang.)         AngularGrid ... 3 (Lebedev-194)
Angular grid pruning method      GridPruning ... 4 (adaptive)
Weight generation scheme         WeightScheme... Becke
Basis function cutoff            BFCut       ... 1.0000e-11
Integration weight cutoff        WCut        ... 1.0000e-14
Angular grids for H and He will be reduced by one unit
Partially contracted basis set               ... on
Rotationally invariant grid construction     ... off

Total number of grid points                  ...   102033
Total number of batches                      ...     1608
Average number of points per batch           ...       63
Average number of grid points per atom       ...     3401
UseSFitting                                  ... on

Time for X-Grid setup             =    4.267 sec

--------------
SCF ITERATIONS
--------------
ITER       Energy         Delta-E        Max-DP      RMS-DP      [F,P]     Damp
               ***  Starting incremental Fock matrix formation  ***
  0   -917.3067056761   0.000000000000 0.07842031  0.00128235  0.1410631 0.7000
  1   -917.4890053179  -0.182299641805 0.07109848  0.00108615  0.0810526 0.7000
                               ***Turning on DIIS***
  2   -917.5683992045  -0.079393886566 0.17432972  0.00258555  0.0592598 0.0000
  3   -917.7197349317  -0.151335727190 0.04336011  0.00072756  0.0371843 0.0000
  4   -917.7353029575  -0.015568025820 0.01216161  0.00021892  0.0317772 0.0000
  5   -917.7387193844  -0.003416426883 0.00800627  0.00009985  0.0054522 0.0000
                      *** Initiating the SOSCF procedure ***
                           *** Shutting down DIIS ***
                      *** Re-Reading the Fockian *** 
                      *** Removing any level shift *** 
ITER      Energy       Delta-E        Grad      Rot      Max-DP    RMS-DP
  6   -917.73890835  -0.0001889622  0.000802  0.000802  0.004295  0.000056
               *** Restarting incremental Fock matrix formation ***
  7   -917.73862789   0.0002804603  0.000473  0.001809  0.050310  0.000760
  8   -917.73864060  -0.0000127137  0.000784  0.004664  0.048263  0.000737
  9   -917.73862116   0.0000194446  0.002500  0.005622  0.015140  0.000227
 10   -917.73862595  -0.0000047949  0.001301  0.003014  0.068491  0.001038
 11   -917.73864042  -0.0000144745  0.000785  0.001465  0.039782  0.000610
 12   -917.73865008  -0.0000096586  0.000232  0.000312  0.001683  0.000025
 13   -917.73865001   0.0000000740  0.000135  0.000259  0.005438  0.000082
 14   -917.73865079  -0.0000007823  0.000063  0.000115  0.000860  0.000013
 15   -917.73865079  -0.0000000032  0.000036  0.000053  0.000428  0.000006
 16   -917.73865082  -0.0000000203  0.000017  0.000036  0.000278  0.000004
 17   -917.73865082  -0.0000000004  0.000010  0.000011  0.000100  0.000001
 18   -917.73865083  -0.0000000165  0.000004  0.000010  0.000149  0.000002
 19   -917.73865085  -0.0000000211  0.000003  0.000003  0.000086  0.000001
                  ***Gradient check signals convergence***
              ***Rediagonalizing the Fockian in SOSCF/NRSCF***

               *****************************************************
               *                     SUCCESS                       *
               *           SCF CONVERGED AFTER  20 CYCLES          *
               *****************************************************

Old exchange energy                            =    -68.247499209 Eh
New exchange energy                            =    -68.247349782 Eh
Exchange energy change after final integration =      0.000149427 Eh
Total energy after final integration           =   -917.738501411 Eh
Final COS-X integration done in                =   106.862 sec

----------------
TOTAL SCF ENERGY
----------------

Total Energy       :         -917.73850141 Eh          -24972.93422 eV

Components:
Nuclear Repulsion  :         1727.17445999 Eh           46998.80643 eV
Electronic Energy  :        -2644.91296141 Eh          -71971.74065 eV
One Electron Energy:        -4668.03649439 Eh         -127023.73077 eV
Two Electron Energy:         2023.12353298 Eh           55051.99012 eV
Max COSX asymmetry :            0.00000486 Eh               0.00013 eV

Virial components:
Potential Energy   :        -1830.99563078 Eh          -49823.92411 eV
Kinetic Energy     :          913.25712937 Eh           24850.98989 eV
Virial Ratio       :            2.00490702


DFT components:
N(Alpha)           :       75.000129273632 electrons
N(Beta)            :       75.000129273632 electrons
N(Total)           :      150.000258547265 electrons
E(XC)              :      -63.835128235432 Eh       
DFET-embed. en.    :        0.000000000000 Eh       

---------------
SCF CONVERGENCE
---------------

  Last Energy change         ...    1.5776e-08  Tolerance :   1.0000e-08
  Last MAX-Density change    ...    2.1094e-15  Tolerance :   1.0000e-07
  Last RMS-Density change    ...    1.3620e-17  Tolerance :   5.0000e-09
  Last Orbital Gradient      ...    4.8106e-07  Tolerance :   1.0000e-05
  Last Orbital Rotation      ...    1.4631e-06  Tolerance :   1.0000e-05

             **** THE GBW FILE WAS UPDATED (five_six_two_one_ten_seven_loss.gbw) ****
             **** DENSITY five_six_two_one_ten_seven_loss.scfp WAS UPDATED ****
             **** ENERGY FILE WAS UPDATED (five_six_two_one_ten_seven_loss.en.tmp) ****
             **** THE GBW FILE WAS UPDATED (five_six_two_one_ten_seven_loss.gbw) ****
             **** DENSITY five_six_two_one_ten_seven_loss.scfp WAS UPDATED ****
----------------
ORBITAL ENERGIES
----------------

  NO   OCC          E(Eh)            E(eV) 
   0   2.0000     -10.605040      -288.5778 
   1   2.0000     -10.600397      -288.4515 
   2   2.0000     -10.600118      -288.4439 
   3   2.0000     -10.597691      -288.3778 
   4   2.0000     -10.597194      -288.3643 
   5   2.0000     -10.596879      -288.3557 
   6   2.0000     -10.591570      -288.2113 
   7   2.0000     -10.590260      -288.1756 
   8   2.0000     -10.589485      -288.1545 
   9   2.0000     -10.588585      -288.1301 
  10   2.0000     -10.587632      -288.1041 
  11   2.0000     -10.587038      -288.0880 
  12   2.0000     -10.583657      -287.9959 
  13   2.0000     -10.582786      -287.9723 
  14   2.0000     -10.581893      -287.9479 
  15   2.0000     -10.573180      -287.7108 
  16   2.0000     -10.572614      -287.6954 
  17   2.0000     -10.569176      -287.6019 
  18   2.0000     -10.568281      -287.5775 
  19   2.0000     -10.567195      -287.5480 
  20   2.0000     -10.562355      -287.4163 
  21   2.0000     -10.559742      -287.3452 
  22   2.0000     -10.558435      -287.3096 
  23   2.0000     -10.555381      -287.2265 
  24   2.0000      -1.044544       -28.4235 
  25   2.0000      -1.007093       -27.4044 
  26   2.0000      -1.005041       -27.3486 
  27   2.0000      -0.955740       -26.0070 
  28   2.0000      -0.952663       -25.9233 
  29   2.0000      -0.929156       -25.2836 
  30   2.0000      -0.902057       -24.5462 
  31   2.0000      -0.882858       -24.0238 
  32   2.0000      -0.862825       -23.4787 
  33   2.0000      -0.852780       -23.2053 
  34   2.0000      -0.830684       -22.6041 
  35   2.0000      -0.824097       -22.4248 
  36   2.0000      -0.747597       -20.3431 
  37   2.0000      -0.743623       -20.2350 
  38   2.0000      -0.732973       -19.9452 
  39   2.0000      -0.718426       -19.5494 
  40   2.0000      -0.715254       -19.4631 
  41   2.0000      -0.666632       -18.1400 
  42   2.0000      -0.638288       -17.3687 
  43   2.0000      -0.628362       -17.0986 
  44   2.0000      -0.613004       -16.6807 
  45   2.0000      -0.604808       -16.4577 
  46   2.0000      -0.600016       -16.3273 
  47   2.0000      -0.562891       -15.3170 
  48   2.0000      -0.553782       -15.0692 
  49   2.0000      -0.548778       -14.9330 
  50   2.0000      -0.536811       -14.6074 
  51   2.0000      -0.533145       -14.5076 
  52   2.0000      -0.528257       -14.3746 
  53   2.0000      -0.517241       -14.0749 
  54   2.0000      -0.505995       -13.7688 
  55   2.0000      -0.497629       -13.5412 
  56   2.0000      -0.488559       -13.2944 
  57   2.0000      -0.487497       -13.2655 
  58   2.0000      -0.473067       -12.8728 
  59   2.0000      -0.468344       -12.7443 
  60   2.0000      -0.456371       -12.4185 
  61   2.0000      -0.432897       -11.7797 
  62   2.0000      -0.427961       -11.6454 
  63   2.0000      -0.427666       -11.6374 
  64   2.0000      -0.425685       -11.5835 
  65   2.0000      -0.405844       -11.0436 
  66   2.0000      -0.358122        -9.7450 
  67   2.0000      -0.348969        -9.4959 
  68   2.0000      -0.341345        -9.2885 
  69   2.0000      -0.337680        -9.1887 
  70   2.0000      -0.331981        -9.0337 
  71   2.0000      -0.327759        -8.9188 
  72   2.0000      -0.274378        -7.4662 
  73   2.0000      -0.273817        -7.4509 
  74   2.0000      -0.247202        -6.7267 
  75   0.0000      -0.160177        -4.3586 
  76   0.0000      -0.060221        -1.6387 
  77   0.0000      -0.051546        -1.4026 
  78   0.0000      -0.048953        -1.3321 
  79   0.0000      -0.042453        -1.1552 
  80   0.0000      -0.011767        -0.3202 
  81   0.0000      -0.002628        -0.0715 
  82   0.0000       0.005380         0.1464 
  83   0.0000       0.047047         1.2802 
  84   0.0000       0.082712         2.2507 
  85   0.0000       0.087061         2.3691 
  86   0.0000       0.089600         2.4381 
  87   0.0000       0.091505         2.4900 
  88   0.0000       0.111530         3.0349 
  89   0.0000       0.116947         3.1823 
  90   0.0000       0.121662         3.3106 
  91   0.0000       0.122465         3.3324 
  92   0.0000       0.124947         3.4000 
  93   0.0000       0.130092         3.5400 
  94   0.0000       0.130508         3.5513 
  95   0.0000       0.134850         3.6694 
  96   0.0000       0.166654         4.5349 
  97   0.0000       0.171106         4.6560 
  98   0.0000       0.176474         4.8021 
  99   0.0000       0.184574         5.0225 
 100   0.0000       0.184661         5.0249 
 101   0.0000       0.194305         5.2873 
 102   0.0000       0.196996         5.3605 
 103   0.0000       0.200901         5.4668 
 104   0.0000       0.201704         5.4886 
 105   0.0000       0.207312         5.6412 
 106   0.0000       0.221671         6.0320 
 107   0.0000       0.223676         6.0865 
 108   0.0000       0.225270         6.1299 
 109   0.0000       0.227353         6.1866 
 110   0.0000       0.237690         6.4679 
 111   0.0000       0.243582         6.6282 
 112   0.0000       0.248307         6.7568 
 113   0.0000       0.254130         6.9152 
 114   0.0000       0.254683         6.9303 
 115   0.0000       0.261981         7.1289 
 116   0.0000       0.262416         7.1407 
 117   0.0000       0.267422         7.2769 
 118   0.0000       0.268789         7.3141 
 119   0.0000       0.274864         7.4794 
 120   0.0000       0.278298         7.5729 
 121   0.0000       0.281575         7.6620 
 122   0.0000       0.288118         7.8401 
 123   0.0000       0.290067         7.8931 
 124   0.0000       0.295089         8.0298 
 125   0.0000       0.297008         8.0820 
 126   0.0000       0.305871         8.3232 
 127   0.0000       0.310341         8.4448 
 128   0.0000       0.314674         8.5627 
 129   0.0000       0.315160         8.5759 
 130   0.0000       0.317126         8.6294 
 131   0.0000       0.321694         8.7537 
 132   0.0000       0.322742         8.7823 
 133   0.0000       0.328297         8.9334 
 134   0.0000       0.335778         9.1370 
 135   0.0000       0.338665         9.2155 
 136   0.0000       0.348703         9.4887 
 137   0.0000       0.350222         9.5300 
 138   0.0000       0.357235         9.7209 
 139   0.0000       0.358084         9.7440 
 140   0.0000       0.359473         9.7818 
 141   0.0000       0.369523        10.0552 
 142   0.0000       0.373268        10.1572 
 143   0.0000       0.373391        10.1605 
 144   0.0000       0.376250        10.2383 
 145   0.0000       0.377882        10.2827 
 146   0.0000       0.380840        10.3632 
 147   0.0000       0.383775        10.4431 
 148   0.0000       0.383909        10.4467 
 149   0.0000       0.390864        10.6359 
 150   0.0000       0.401463        10.9244 
 151   0.0000       0.405725        11.0403 
 152   0.0000       0.409574        11.1451 
 153   0.0000       0.415922        11.3178 
 154   0.0000       0.418452        11.3867 
 155   0.0000       0.422538        11.4978 
 156   0.0000       0.429860        11.6971 
 157   0.0000       0.435841        11.8598 
 158   0.0000       0.442420        12.0389 
 159   0.0000       0.451909        12.2971 
 160   0.0000       0.455223        12.3872 
 161   0.0000       0.461170        12.5491 
 162   0.0000       0.466099        12.6832 
 163   0.0000       0.466317        12.6891 
 164   0.0000       0.471165        12.8210 
 165   0.0000       0.477778        13.0010 
 166   0.0000       0.484886        13.1944 
 167   0.0000       0.490798        13.3553 
 168   0.0000       0.494219        13.4484 
 169   0.0000       0.503592        13.7034 
 170   0.0000       0.506788        13.7904 
 171   0.0000       0.509270        13.8579 
 172   0.0000       0.510864        13.9013 
 173   0.0000       0.521856        14.2004 
 174   0.0000       0.535807        14.5801 
 175   0.0000       0.536637        14.6026 
 176   0.0000       0.538931        14.6651 
 177   0.0000       0.543321        14.7845 
 178   0.0000       0.543356        14.7855 
 179   0.0000       0.549343        14.9484 
 180   0.0000       0.549698        14.9580 
 181   0.0000       0.558721        15.2036 
 182   0.0000       0.564823        15.3696 
 183   0.0000       0.570701        15.5296 
 184   0.0000       0.580844        15.8056 
 185   0.0000       0.583057        15.8658 
 186   0.0000       0.597213        16.2510 
 187   0.0000       0.606723        16.5098 
 188   0.0000       0.622225        16.9316 
 189   0.0000       0.623147        16.9567 
 190   0.0000       0.627520        17.0757 
 191   0.0000       0.628245        17.0954 
 192   0.0000       0.629885        17.1401 
 193   0.0000       0.636598        17.3227 
 194   0.0000       0.638124        17.3642 
 195   0.0000       0.646579        17.5943 
 196   0.0000       0.652468        17.7545 
 197   0.0000       0.653366        17.7790 
 198   0.0000       0.657033        17.8788 
 199   0.0000       0.664299        18.0765 
 200   0.0000       0.669066        18.2062 
 201   0.0000       0.677115        18.4252 
 202   0.0000       0.681904        18.5555 
 203   0.0000       0.685368        18.6498 
 204   0.0000       0.688602        18.7378 
 205   0.0000       0.691977        18.8296 
 206   0.0000       0.706129        19.2147 
 207   0.0000       0.715539        19.4708 
 208   0.0000       0.720473        19.6051 
 209   0.0000       0.721018        19.6199 
 210   0.0000       0.723430        19.6855 
 211   0.0000       0.730303        19.8726 
 212   0.0000       0.739634        20.1265 
 213   0.0000       0.749673        20.3996 
 214   0.0000       0.756427        20.5834 
 215   0.0000       0.758836        20.6490 
 216   0.0000       0.759746        20.6737 
 217   0.0000       0.765975        20.8432 
 218   0.0000       0.770450        20.9650 
 219   0.0000       0.775815        21.1110 
 220   0.0000       0.786258        21.3952 
 221   0.0000       0.787750        21.4358 
 222   0.0000       0.790217        21.5029 
 223   0.0000       0.792704        21.5706 
 224   0.0000       0.794329        21.6148 
 225   0.0000       0.799885        21.7660 
 226   0.0000       0.810070        22.0431 
 227   0.0000       0.813597        22.1391 
 228   0.0000       0.818882        22.2829 
 229   0.0000       0.821449        22.3528 
 230   0.0000       0.826635        22.4939 
 231   0.0000       0.840737        22.8776 
 232   0.0000       0.843350        22.9487 
 233   0.0000       0.851224        23.1630 
 234   0.0000       0.855330        23.2747 
 235   0.0000       0.862218        23.4621 
 236   0.0000       0.866955        23.5910 
 237   0.0000       0.872852        23.7515 
 238   0.0000       0.877583        23.8803 
 239   0.0000       0.882849        24.0235 
 240   0.0000       0.893145        24.3037 
 241   0.0000       0.893554        24.3148 
 242   0.0000       0.895093        24.3567 
 243   0.0000       0.904480        24.6122 
 244   0.0000       0.906111        24.6565 
 245   0.0000       0.909451        24.7474 
 246   0.0000       0.913598        24.8603 
 247   0.0000       0.934634        25.4327 
 248   0.0000       0.940236        25.5851 
 249   0.0000       0.944676        25.7060 
 250   0.0000       0.950549        25.8658 
 251   0.0000       0.951863        25.9015 
 252   0.0000       0.967231        26.3197 
 253   0.0000       0.977032        26.5864 
 254   0.0000       0.991279        26.9741 
 255   0.0000       0.991460        26.9790 
 256   0.0000       0.998780        27.1782 
 257   0.0000       1.011531        27.5252 
 258   0.0000       1.019531        27.7429 
 259   0.0000       1.024640        27.8819 
 260   0.0000       1.046201        28.4686 
 261   0.0000       1.060361        28.8539 
 262   0.0000       1.060908        28.8688 
 263   0.0000       1.067826        29.0570 
 264   0.0000       1.069779        29.1102 
 265   0.0000       1.074091        29.2275 
 266   0.0000       1.081087        29.4179 
 267   0.0000       1.083411        29.4811 
 268   0.0000       1.088372        29.6161 
 269   0.0000       1.102991        30.0139 
 270   0.0000       1.113267        30.2935 
 271   0.0000       1.140360        31.0308 
 272   0.0000       1.147634        31.2287 
 273   0.0000       1.149353        31.2755 
 274   0.0000       1.153036        31.3757 
 275   0.0000       1.163916        31.6718 
 276   0.0000       1.180154        32.1136 
 277   0.0000       1.201644        32.6984 
 278   0.0000       1.207554        32.8592 
 279   0.0000       1.208267        32.8786 
 280   0.0000       1.211546        32.9678 
 281   0.0000       1.220717        33.2174 
 282   0.0000       1.229726        33.4625 
 283   0.0000       1.232491        33.5378 
 284   0.0000       1.234599        33.5952 
 285   0.0000       1.240851        33.7653 
 286   0.0000       1.242529        33.8109 
 287   0.0000       1.245115        33.8813 
 288   0.0000       1.250207        34.0199 
 289   0.0000       1.256934        34.2029 
 290   0.0000       1.274212        34.6731 
 291   0.0000       1.278430        34.7878 
 292   0.0000       1.285661        34.9846 
 293   0.0000       1.289498        35.0890 
 294   0.0000       1.301225        35.4081 
 295   0.0000       1.304468        35.4964 
 296   0.0000       1.307877        35.5892 
 297   0.0000       1.313122        35.7319 
 298   0.0000       1.314580        35.7715 
 299   0.0000       1.326086        36.0846 
 300   0.0000       1.326303        36.0905 
 301   0.0000       1.344818        36.5944 
 302   0.0000       1.352319        36.7985 
 303   0.0000       1.360360        37.0173 
 304   0.0000       1.362103        37.0647 
 305   0.0000       1.370710        37.2989 
 306   0.0000       1.382027        37.6069 
 307   0.0000       1.382231        37.6124 
 308   0.0000       1.397581        38.0301 
 309   0.0000       1.402871        38.1741 
 310   0.0000       1.412824        38.4449 
 311   0.0000       1.415297        38.5122 
 312   0.0000       1.422601        38.7109 
 313   0.0000       1.423608        38.7383 
 314   0.0000       1.427167        38.8352 
 315   0.0000       1.432314        38.9752 
 316   0.0000       1.437466        39.1154 
 317   0.0000       1.440822        39.2068 
 318   0.0000       1.443541        39.2808 
 319   0.0000       1.471412        40.0392 
 320   0.0000       1.476331        40.1730 
 321   0.0000       1.484352        40.3913 
 322   0.0000       1.499031        40.7907 
 323   0.0000       1.507286        41.0153 
 324   0.0000       1.523931        41.4683 
 325   0.0000       1.528259        41.5860 
 326   0.0000       1.530231        41.6397 
 327   0.0000       1.533221        41.7211 
 328   0.0000       1.533504        41.7288 
 329   0.0000       1.543633        42.0044 
 330   0.0000       1.556402        42.3519 
 331   0.0000       1.570068        42.7237 
 332   0.0000       1.574889        42.8549 
 333   0.0000       1.577616        42.9291 
 334   0.0000       1.578920        42.9646 
 335   0.0000       1.586667        43.1754 
 336   0.0000       1.593456        43.3601 
 337   0.0000       1.601061        43.5671 
 338   0.0000       1.612921        43.8898 
 339   0.0000       1.614474        43.9321 
 340   0.0000       1.614673        43.9375 
 341   0.0000       1.635495        44.5041 
 342   0.0000       1.641096        44.6565 
 343   0.0000       1.641978        44.6805 
 344   0.0000       1.650313        44.9073 
 345   0.0000       1.654381        45.0180 
 346   0.0000       1.661130        45.2016 
 347   0.0000       1.662434        45.2371 
 348   0.0000       1.665946        45.3327 
 349   0.0000       1.668755        45.4091 
 350   0.0000       1.678824        45.6831 
 351   0.0000       1.694700        46.1151 
 352   0.0000       1.703441        46.3530 
 353   0.0000       1.706852        46.4458 
 354   0.0000       1.715440        46.6795 
 355   0.0000       1.727658        47.0120 
 356   0.0000       1.734214        47.1904 
 357   0.0000       1.735325        47.2206 
 358   0.0000       1.738018        47.2939 
 359   0.0000       1.751085        47.6494 
 360   0.0000       1.751194        47.6524 
 361   0.0000       1.759875        47.8886 
 362   0.0000       1.775946        48.3259 
 363   0.0000       1.783534        48.5324 
 364   0.0000       1.793700        48.8091 
 365   0.0000       1.804213        49.0951 
 366   0.0000       1.828029        49.7432 
 367   0.0000       1.828290        49.7503 
 368   0.0000       1.840361        50.0788 
 369   0.0000       1.864091        50.7245 
 370   0.0000       1.884892        51.2905 
 371   0.0000       1.889574        51.4179 
 372   0.0000       1.891681        51.4753 
 373   0.0000       1.897821        51.6423 
 374   0.0000       1.912693        52.0470 
 375   0.0000       1.913317        52.0640 
 376   0.0000       1.920917        52.2708 
 377   0.0000       1.924695        52.3736 
 378   0.0000       1.959167        53.3116 
 379   0.0000       1.963187        53.4210 
 380   0.0000       1.975235        53.7489 
 381   0.0000       1.980441        53.8905 
 382   0.0000       1.989921        54.1485 
 383   0.0000       2.001271        54.4573 
 384   0.0000       2.014890        54.8279 
 385   0.0000       2.016519        54.8723 
 386   0.0000       2.024471        55.0887 
 387   0.0000       2.033109        55.3237 
 388   0.0000       2.034031        55.3488 
 389   0.0000       2.050702        55.8024 
 390   0.0000       2.065561        56.2068 
 391   0.0000       2.074900        56.4609 
 392   0.0000       2.090662        56.8898 
 393   0.0000       2.102421        57.2098 
 394   0.0000       2.109955        57.4148 
 395   0.0000       2.128262        57.9130 
 396   0.0000       2.131028        57.9882 
 397   0.0000       2.150136        58.5082 
 398   0.0000       2.152062        58.5606 
 399   0.0000       2.152296        58.5669 
 400   0.0000       2.157114        58.6981 
 401   0.0000       2.168636        59.0116 
 402   0.0000       2.189874        59.5895 
 403   0.0000       2.206699        60.0473 
 404   0.0000       2.217428        60.3393 
 405   0.0000       2.224301        60.5263 
 406   0.0000       2.230611        60.6980 
 407   0.0000       2.233587        60.7790 
 408   0.0000       2.237998        60.8990 
 409   0.0000       2.240920        60.9785 
 410   0.0000       2.248714        61.1906 
 411   0.0000       2.253838        61.3301 
 412   0.0000       2.261970        61.5513 
 413   0.0000       2.279447        62.0269 
 414   0.0000       2.282130        62.0999 
 415   0.0000       2.287404        62.2434 
 416   0.0000       2.287515        62.2464 
 417   0.0000       2.300446        62.5983 
 418   0.0000       2.305582        62.7381 
 419   0.0000       2.325736        63.2865 
 420   0.0000       2.331213        63.4355 
 421   0.0000       2.338010        63.6205 
 422   0.0000       2.343130        63.7598 
 423   0.0000       2.363093        64.3030 
 424   0.0000       2.387070        64.9555 
 425   0.0000       2.399264        65.2873 
 426   0.0000       2.409408        65.5633 
 427   0.0000       2.423049        65.9345 
 428   0.0000       2.429774        66.1175 
 429   0.0000       2.445829        66.5544 
 430   0.0000       2.449329        66.6496 
 431   0.0000       2.465682        67.0946 
 432   0.0000       2.473159        67.2981 
 433   0.0000       2.483215        67.5717 
 434   0.0000       2.486999        67.6747 
 435   0.0000       2.519769        68.5664 
 436   0.0000       2.532308        68.9076 
 437   0.0000       2.533720        68.9460 
 438   0.0000       2.558862        69.6302 
 439   0.0000       2.564067        69.7718 
 440   0.0000       2.572544        70.0025 
 441   0.0000       2.572713        70.0071 
 442   0.0000       2.597432        70.6797 
 443   0.0000       2.605223        70.8917 
 444   0.0000       2.608462        70.9798 
 445   0.0000       2.615394        71.1685 
 446   0.0000       2.617835        71.2349 
 447   0.0000       2.618583        71.2553 
 448   0.0000       2.630315        71.5745 
 449   0.0000       2.638226        71.7898 
 450   0.0000       2.640753        71.8585 
 451   0.0000       2.645101        71.9769 
 452   0.0000       2.652329        72.1735 
 453   0.0000       2.658133        72.3315 
 454   0.0000       2.675357        72.8002 
 455   0.0000       2.678032        72.8730 
 456   0.0000       2.690235        73.2050 
 457   0.0000       2.692184        73.2581 
 458   0.0000       2.703412        73.5636 
 459   0.0000       2.708196        73.6938 
[...]
|  sn= 3 | S(rot)=       0.38914916 Eh    244.19 kcal/mol|
|  sn= 4 | S(rot)=       0.38368297 Eh    240.76 kcal/mol|
|  sn= 5 | S(rot)=       0.37944307 Eh    238.10 kcal/mol|
|  sn= 6 | S(rot)=       0.37597882 Eh    235.93 kcal/mol|
|  sn= 7 | S(rot)=       0.37304983 Eh    234.09 kcal/mol|
|  sn= 8 | S(rot)=       0.37051263 Eh    232.50 kcal/mol|
|  sn= 9 | S(rot)=       0.36827466 Eh    231.10 kcal/mol|
|  sn=10 | S(rot)=       0.36627272 Eh    229.84 kcal/mol|
|  sn=11 | S(rot)=       0.36446176 Eh    228.70 kcal/mol|
|  sn=12 | S(rot)=       0.36280847 Eh    227.67 kcal/mol|
 --------------------------------------------------------


-------------------
GIBBS FREE ENERGY
-------------------

The Gibbs free energy is G = H - T*S

Total enthalpy                    ...   -916.06504199 Eh 
Total entropy correction          ...     -5.08572637 Eh  -3191.33 kcal/mol
-----------------------------------------------------------------------
Final Gibbs free energy         ...   -921.15076836 Eh

For completeness - the Gibbs free energy minus the electronic energy
G-E(el)                           ...     -3.40054563 Eh  -2133.87 kcal/mol


The first frequency considered to be a vibration is 6
The total number of vibrations considered is 84


--------------------------
THERMOCHEMISTRY AT 8000.00K
--------------------------

Temperature         ... 8000.00 K
Pressure            ... 1.00 atm
Total Mass          ... 294.31 AMU

Throughout the following assumptions are being made:
  (1) The electronic state is orbitally nondegenerate
  (2) There are no thermally accessible electronically excited states
  (3) Hindered rotations indicated by low frequency modes are not
      treated as such but are treated as vibrations and this may
      cause some error
  (4) All equations used are the standard statistical mechanics
      equations for an ideal gas
  (5) All vibrations are strictly harmonic

freq.      77.12  E(vib)   ...      15.79 
freq.      85.26  E(vib)   ...      15.78 
freq.     126.12  E(vib)   ...      15.72 
freq.     167.60  E(vib)   ...      15.66 
freq.     218.38  E(vib)   ...      15.59 
freq.     272.49  E(vib)   ...      15.51 
freq.     295.58  E(vib)   ...      15.48 
freq.     318.14  E(vib)   ...      15.45 
freq.     330.39  E(vib)   ...      15.43 
freq.     345.48  E(vib)   ...      15.41 
freq.     359.25  E(vib)   ...      15.39 
freq.     382.92  E(vib)   ...      15.36 
freq.     393.48  E(vib)   ...      15.34 
freq.     406.89  E(vib)   ...      15.32 
freq.     427.24  E(vib)   ...      15.30 
freq.     446.16  E(vib)   ...      15.27 
freq.     450.75  E(vib)   ...      15.26 
freq.     468.50  E(vib)   ...      15.24 
freq.     470.74  E(vib)   ...      15.23 
freq.     479.77  E(vib)   ...      15.22 
freq.     496.76  E(vib)   ...      15.20 
freq.     505.86  E(vib)   ...      15.19 
freq.     525.79  E(vib)   ...      15.16 
freq.     540.81  E(vib)   ...      15.14 
freq.     557.31  E(vib)   ...      15.11 
freq.     570.51  E(vib)   ...      15.10 
freq.     599.05  E(vib)   ...      15.06 
freq.     608.99  E(vib)   ...      15.04 
freq.     648.42  E(vib)   ...      14.99 
freq.     664.71  E(vib)   ...      14.97 
freq.     675.78  E(vib)   ...      14.95 
freq.     695.17  E(vib)   ...      14.92 
freq.     717.65  E(vib)   ...      14.89 
freq.     759.03  E(vib)   ...      14.84 
freq.     800.57  E(vib)   ...      14.78 
freq.     811.48  E(vib)   ...      14.77 
freq.     819.00  E(vib)   ...      14.76 
freq.     825.35  E(vib)   ...      14.75 
freq.     842.57  E(vib)   ...      14.72 
freq.     852.35  E(vib)   ...      14.71 
freq.     855.63  E(vib)   ...      14.71 
freq.     859.74  E(vib)   ...      14.70 
freq.     882.12  E(vib)   ...      14.67 
freq.     962.90  E(vib)   ...      14.56 
freq.     968.15  E(vib)   ...      14.55 
freq.     999.33  E(vib)   ...      14.51 
freq.    1000.17  E(vib)   ...      14.51 
freq.    1019.51  E(vib)   ...      14.49 
freq.    1040.89  E(vib)   ...      14.46 
freq.    1107.37  E(vib)   ...      14.37 
freq.    1137.02  E(vib)   ...      14.33 
freq.    1154.66  E(vib)   ...      14.30 
freq.    1194.23  E(vib)   ...      14.25 
freq.    1217.05  E(vib)   ...      14.22 
freq.    1232.83  E(vib)   ...      14.20 
freq.    1244.28  E(vib)   ...      14.19 
freq.    1258.19  E(vib)   ...      14.17 
freq.    1268.23  E(vib)   ...      14.15 
freq.    1302.73  E(vib)   ...      14.11 
freq.    1315.94  E(vib)   ...      14.09 
freq.    1332.76  E(vib)   ...      14.07 
freq.    1362.44  E(vib)   ...      14.03 
freq.    1384.41  E(vib)   ...      14.00 
freq.    1396.18  E(vib)   ...      13.99 
freq.    1416.59  E(vib)   ...      13.96 
freq.    1427.67  E(vib)   ...      13.94 
freq.    1447.55  E(vib)   ...      13.92 
freq.    1484.79  E(vib)   ...      13.87 
freq.    1491.10  E(vib)   ...      13.86 
freq.    1506.81  E(vib)   ...      13.84 
freq.    1582.97  E(vib)   ...      13.74 
freq.    1591.94  E(vib)   ...      13.73 
freq.    1611.00  E(vib)   ...      13.71 
freq.    1655.82  E(vib)   ...      13.65 
freq.    1664.76  E(vib)   ...      13.64 
freq.    1728.81  E(vib)   ...      13.55 
freq.    2120.71  E(vib)   ...      13.06 
freq.    2141.84  E(vib)   ...      13.03 
freq.    3165.61  E(vib)   ...      11.80 
freq.    3189.55  E(vib)   ...      11.77 
freq.    3230.33  E(vib)   ...      11.72 
freq.    3231.09  E(vib)   ...      11.72 
freq.    3245.18  E(vib)   ...      11.71 
freq.    3245.20  E(vib)   ...      11.71 

------------
INNER ENERGY
------------

The inner energy is: U= E(el) + E(ZPE) + E(vib) + E(rot) + E(trans)
    E(el)   - is the total energy from the electronic structure calculation
              = E(kin-el) + E(nuc-el) + E(el-el) + E(nuc-nuc)
    E(ZPE)  - the the zero temperature vibrational energy from the frequency calculation
    E(vib)  - the the finite temperature correction to E(ZPE) due to population
              of excited vibrational states
    E(rot)  - is the rotational thermal energy
    E(trans)- is the translational thermal energy

Summary of contributions to the inner energy U:
Electronic energy                ...   -917.75022273 Eh
Zero point energy                ...      0.20438685 Eh     128.25 kcal/mol
Thermal vibrational correction   ...      1.93358505 Eh    1213.34 kcal/mol
Thermal rotational correction    ...      0.03800158 Eh      23.85 kcal/mol
Thermal translational correction ...      0.03800158 Eh      23.85 kcal/mol
-----------------------------------------------------------------------
Total thermal energy                   -915.53624767 Eh


Summary of corrections to the electronic energy:
(perhaps to be used in another calculation)
Total thermal correction                  2.00958822 Eh    1261.03 kcal/mol
Non-thermal (ZPE) correction              0.20438685 Eh     128.25 kcal/mol
-----------------------------------------------------------------------
Total correction                          2.21397507 Eh    1389.29 kcal/mol


--------
ENTHALPY
--------

The enthalpy is H = U + kB*T
                kB is Boltzmann's constant
Total free energy                 ...   -915.53624767 Eh 
Thermal Enthalpy correction       ...      0.02533514 Eh      15.90 kcal/mol
-----------------------------------------------------------------------
Total Enthalpy                    ...   -915.51091253 Eh


Note: Rotational entropy computed according to Herzberg 
Infrared and Raman Spectra, Chapter V,1, Van Nostrand Reinhold, 1945 
Point Group:  Cs, Symmetry Number:   1  
Rotational constants in cm-1:     0.012210     0.011449     0.005909 

Vibrational entropy computed according to the QRRHO of S. Grimme
Chem.Eur.J. 2012 18 9955


-------
ENTROPY
-------

The entropy contributions are T*S = T*(S(el)+S(vib)+S(rot)+S(trans))
     S(el)   - electronic entropy
     S(vib)  - vibrational entropy
     S(rot)  - rotational entropy
     S(trans)- translational entropy
The entropies will be listed as multiplied by the temperature to get
units of energy

Electronic entropy                ...      0.00000000 Eh      0.00 kcal/mol
Vibrational entropy               ...      6.09814717 Eh   3826.64 kcal/mol
Rotational entropy                ...      0.55763059 Eh    349.92 kcal/mol
Translational entropy             ...      0.75572723 Eh    474.22 kcal/mol
-----------------------------------------------------------------------
Final entropy term                ...      7.41150500 Eh   4650.78 kcal/mol

In case the symmetry of your molecule has not been determined correctly
or in case you have a reason to use a different symmetry number we print 
out the resulting rotational entropy values for sn=1,12 :
 --------------------------------------------------------
|  sn= 1 | S(rot)=       0.55763059 Eh    349.92 kcal/mol|
|  sn= 2 | S(rot)=       0.54007013 Eh    338.90 kcal/mol|
|  sn= 3 | S(rot)=       0.52979792 Eh    332.45 kcal/mol|
|  sn= 4 | S(rot)=       0.52250967 Eh    327.88 kcal/mol|
|  sn= 5 | S(rot)=       0.51685647 Eh    324.33 kcal/mol|
|  sn= 6 | S(rot)=       0.51223746 Eh    321.43 kcal/mol|
|  sn= 7 | S(rot)=       0.50833215 Eh    318.98 kcal/mol|
|  sn= 8 | S(rot)=       0.50494921 Eh    316.86 kcal/mol|
|  sn= 9 | S(rot)=       0.50196525 Eh    314.99 kcal/mol|
|  sn=10 | S(rot)=       0.49929601 Eh    313.31 kcal/mol|
|  sn=11 | S(rot)=       0.49688138 Eh    311.80 kcal/mol|
|  sn=12 | S(rot)=       0.49467700 Eh    310.41 kcal/mol|
 --------------------------------------------------------


-------------------
GIBBS FREE ENERGY
-------------------

The Gibbs free energy is G = H - T*S

Total enthalpy                    ...   -915.51091253 Eh 
Total entropy correction          ...     -7.41150500 Eh  -4650.78 kcal/mol
-----------------------------------------------------------------------
Final Gibbs free energy         ...   -922.92241752 Eh

For completeness - the Gibbs free energy minus the electronic energy
G-E(el)                           ...     -5.17219479 Eh  -3245.59 kcal/mol


The first frequency considered to be a vibration is 6
The total number of vibrations considered is 84


--------------------------
THERMOCHEMISTRY AT 10000.00K
--------------------------

Temperature         ... 10000.00 K
Pressure            ... 1.00 atm
Total Mass          ... 294.31 AMU

Throughout the following assumptions are being made:
  (1) The electronic state is orbitally nondegenerate
  (2) There are no thermally accessible electronically excited states
  (3) Hindered rotations indicated by low frequency modes are not
      treated as such but are treated as vibrations and this may
      cause some error
  (4) All equations used are the standard statistical mechanics
      equations for an ideal gas
  (5) All vibrations are strictly harmonic

freq.      77.12  E(vib)   ...      19.76 
freq.      85.26  E(vib)   ...      19.75 
freq.     126.12  E(vib)   ...      19.69 
freq.     167.60  E(vib)   ...      19.63 
freq.     218.38  E(vib)   ...      19.56 
freq.     272.49  E(vib)   ...      19.49 
freq.     295.58  E(vib)   ...      19.45 
freq.     318.14  E(vib)   ...      19.42 
freq.     330.39  E(vib)   ...      19.40 
freq.     345.48  E(vib)   ...      19.38 
freq.     359.25  E(vib)   ...      19.36 
freq.     382.92  E(vib)   ...      19.33 
freq.     393.48  E(vib)   ...      19.32 
freq.     406.89  E(vib)   ...      19.30 
freq.     427.24  E(vib)   ...      19.27 
freq.     446.16  E(vib)   ...      19.24 
freq.     450.75  E(vib)   ...      19.24 
freq.     468.50  E(vib)   ...      19.21 
freq.     470.74  E(vib)   ...      19.21 
freq.     479.77  E(vib)   ...      19.19 
freq.     496.76  E(vib)   ...      19.17 
freq.     505.86  E(vib)   ...      19.16 
freq.     525.79  E(vib)   ...      19.13 
freq.     540.81  E(vib)   ...      19.11 
freq.     557.31  E(vib)   ...      19.09 
freq.     570.51  E(vib)   ...      19.07 
freq.     599.05  E(vib)   ...      19.03 
freq.     608.99  E(vib)   ...      19.01 
freq.     648.42  E(vib)   ...      18.96 
freq.     664.71  E(vib)   ...      18.94 
freq.     675.78  E(vib)   ...      18.92 
freq.     695.17  E(vib)   ...      18.90 
freq.     717.65  E(vib)   ...      18.86 
freq.     759.03  E(vib)   ...      18.81 
freq.     800.57  E(vib)   ...      18.75 
freq.     811.48  E(vib)   ...      18.74 
freq.     819.00  E(vib)   ...      18.72 
freq.     825.35  E(vib)   ...      18.72 
freq.     842.57  E(vib)   ...      18.69 
freq.     852.35  E(vib)   ...      18.68 
freq.     855.63  E(vib)   ...      18.67 
freq.     859.74  E(vib)   ...      18.67 
freq.     882.12  E(vib)   ...      18.64 
freq.     962.90  E(vib)   ...      18.53 
freq.     968.15  E(vib)   ...      18.52 
freq.     999.33  E(vib)   ...      18.48 
freq.    1000.17  E(vib)   ...      18.48 
freq.    1019.51  E(vib)   ...      18.45 
freq.    1040.89  E(vib)   ...      18.42 
freq.    1107.37  E(vib)   ...      18.33 
freq.    1137.02  E(vib)   ...      18.29 
freq.    1154.66  E(vib)   ...      18.27 
freq.    1194.23  E(vib)   ...      18.21 
freq.    1217.05  E(vib)   ...      18.18 
freq.    1232.83  E(vib)   ...      18.16 
freq.    1244.28  E(vib)   ...      18.15 
freq.    1258.19  E(vib)   ...      18.13 
freq.    1268.23  E(vib)   ...      18.11 
freq.    1302.73  E(vib)   ...      18.07 
freq.    1315.94  E(vib)   ...      18.05 
freq.    1332.76  E(vib)   ...      18.03 
freq.    1362.44  E(vib)   ...      17.99 
freq.    1384.41  E(vib)   ...      17.96 
freq.    1396.18  E(vib)   ...      17.94 
freq.    1416.59  E(vib)   ...      17.92 
freq.    1427.67  E(vib)   ...      17.90 
freq.    1447.55  E(vib)   ...      17.87 
freq.    1484.79  E(vib)   ...      17.83 
freq.    1491.10  E(vib)   ...      17.82 
freq.    1506.81  E(vib)   ...      17.80 
freq.    1582.97  E(vib)   ...      17.70 
freq.    1591.94  E(vib)   ...      17.68 
freq.    1611.00  E(vib)   ...      17.66 
freq.    1655.82  E(vib)   ...      17.60 
freq.    1664.76  E(vib)   ...      17.59 
freq.    1728.81  E(vib)   ...      17.50 
freq.    2120.71  E(vib)   ...      16.99 
freq.    2141.84  E(vib)   ...      16.97 
freq.    3165.61  E(vib)   ...      15.69 
freq.    3189.55  E(vib)   ...      15.66 
freq.    3230.33  E(vib)   ...      15.61 
freq.    3231.09  E(vib)   ...      15.61 
freq.    3245.18  E(vib)   ...      15.59 
freq.    3245.20  E(vib)   ...      15.59 

------------
INNER ENERGY
------------

The inner energy is: U= E(el) + E(ZPE) + E(vib) + E(rot) + E(trans)
    E(el)   - is the total energy from the electronic structure calculation
              = E(kin-el) + E(nuc-el) + E(el-el) + E(nuc-nuc)
    E(ZPE)  - the the zero temperature vibrational energy from the frequency calculation
    E(vib)  - the the finite temperature correction to E(ZPE) due to population
              of excited vibrational states
    E(rot)  - is the rotational thermal energy
    E(trans)- is the translational thermal energy

Summary of contributions to the inner energy U:
Electronic energy                ...   -917.75022273 Eh
Zero point energy                ...      0.20438685 Eh     128.25 kcal/mol
Thermal vibrational correction   ...      2.46366748 Eh    1545.97 kcal/mol
Thermal rotational correction    ...      0.04750198 Eh      29.81 kcal/mol
Thermal translational correction ...      0.04750198 Eh      29.81 kcal/mol
-----------------------------------------------------------------------
Total thermal energy                   -914.98716445 Eh


Summary of corrections to the electronic energy:
(perhaps to be used in another calculation)
Total thermal correction                  2.55867143 Eh    1605.59 kcal/mol
Non-thermal (ZPE) correction              0.20438685 Eh     128.25 kcal/mol
-----------------------------------------------------------------------
Total correction                          2.76305828 Eh    1733.84 kcal/mol


--------
ENTHALPY
--------

The enthalpy is H = U + kB*T
                kB is Boltzmann's constant
Total free energy                 ...   -914.98716445 Eh 
Thermal Enthalpy correction       ...      0.03166893 Eh      19.87 kcal/mol
-----------------------------------------------------------------------
Total Enthalpy                    ...   -914.95549553 Eh


Note: Rotational entropy computed according to Herzberg 
Infrared and Raman Spectra, Chapter V,1, Van Nostrand Reinhold, 1945 
Point Group:  Cs, Symmetry Number:   1  
Rotational constants in cm-1:     0.012210     0.011449     0.005909 

Vibrational entropy computed according to the QRRHO of S. Grimme
Chem.Eur.J. 2012 18 9955


-------
ENTROPY
-------

The entropy contributions are T*S = T*(S(el)+S(vib)+S(rot)+S(trans))
     S(el)   - electronic entropy
     S(vib)  - vibrational entropy
     S(rot)  - rotational entropy
     S(trans)- translational entropy
The entropies will be listed as multiplied by the temperature to get
units of energy

Electronic entropy                ...      0.00000000 Eh      0.00 kcal/mol
Vibrational entropy               ...      8.20723817 Eh   5150.11 kcal/mol
Rotational entropy                ...      0.70763800 Eh    444.05 kcal/mol
Translational entropy             ...      0.96232531 Eh    603.87 kcal/mol
-----------------------------------------------------------------------
Final entropy term                ...      9.87720147 Eh   6198.02 kcal/mol

In case the symmetry of your molecule has not been determined correctly
or in case you have a reason to use a different symmetry number we print 
out the resulting rotational entropy values for sn=1,12 :
 --------------------------------------------------------
|  sn= 1 | S(rot)=       0.70763800 Eh    444.05 kcal/mol|
|  sn= 2 | S(rot)=       0.68568742 Eh    430.27 kcal/mol|
|  sn= 3 | S(rot)=       0.67284716 Eh    422.22 kcal/mol|
|  sn= 4 | S(rot)=       0.66373685 Eh    416.50 kcal/mol|
|  sn= 5 | S(rot)=       0.65667034 Eh    412.07 kcal/mol|
|  sn= 6 | S(rot)=       0.65089659 Eh    408.44 kcal/mol|
|  sn= 7 | S(rot)=       0.64601494 Eh    405.38 kcal/mol|
|  sn= 8 | S(rot)=       0.64178627 Eh    402.73 kcal/mol|
|  sn= 9 | S(rot)=       0.63805632 Eh    400.39 kcal/mol|
|  sn=10 | S(rot)=       0.63471977 Eh    398.29 kcal/mol|
|  sn=11 | S(rot)=       0.63170149 Eh    396.40 kcal/mol|
|  sn=12 | S(rot)=       0.62894601 Eh    394.67 kcal/mol|
 --------------------------------------------------------


-------------------
GIBBS FREE ENERGY
-------------------

The Gibbs free energy is G = H - T*S

Total enthalpy                    ...   -914.95549553 Eh 
Total entropy correction          ...     -9.87720147 Eh  -6198.02 kcal/mol
-----------------------------------------------------------------------
Final Gibbs free energy         ...   -924.83269700 Eh

For completeness - the Gibbs free energy minus the electronic energy
G-E(el)                           ...     -7.08247426 Eh  -4444.31 kcal/mol


Timings for individual modules:

Sum of individual times         ...    26169.217 sec (= 436.154 min)
GTO integral calculation        ...       21.259 sec (=   0.354 min)   0.1 %
SCF iterations                  ...     6039.391 sec (= 100.657 min)  23.1 %
SCF Gradient evaluation         ...     1283.094 sec (=  21.385 min)   4.9 %
Geometry relaxation             ...        1.835 sec (=   0.031 min)   0.0 %
Analytical frequency calculation...    18823.638 sec (= 313.727 min)  71.9 %
                             ****ORCA TERMINATED NORMALLY****
TOTAL RUN TIME: 0 days 7 hours 16 minutes 25 seconds 222 msec
