
                                 *****************
                                 * O   R   C   A *
                                 *****************

                                            #,                                       
                                            ###                                      
                                            ####                                     
                                            #####                                    
                                            ######                                   
                                           ########,                                 
                                     ,,################,,,,,                         
                               ,,#################################,,                 
                          ,,##########################################,,             
                       ,#########################################, ''#####,          
                    ,#############################################,,   '####,        
                  ,##################################################,,,,####,       
                ,###########''''           ''''###############################       
              ,#####''   ,,,,##########,,,,          '''####'''          '####       
            ,##' ,,,,###########################,,,                        '##       
           ' ,,###''''                  '''############,,,                           
         ,,##''                                '''############,,,,        ,,,,,,###''
      ,#''                                            '''#######################'''  
     '                                                          ''''####''''         
             ,#######,   #######,   ,#######,      ##                                
            ,#'     '#,  ##    ##  ,#'     '#,    #''#        ######   ,####,        
            ##       ##  ##   ,#'  ##            #'  '#       #        #'  '#        
            ##       ##  #######   ##           ,######,      #####,   #    #        
            '#,     ,#'  ##    ##  '#,     ,#' ,#      #,         ##   #,  ,#        
             '#######'   ##     ##  '#######'  #'      '#     #####' # '####'        



                  #######################################################
                  #                        -***-                        #
                  #          Department of theory and spectroscopy      #
                  #    Directorship and core code : Frank Neese         #
                  #        Max Planck Institute fuer Kohlenforschung    #
                  #                Kaiser Wilhelm Platz 1               #
                  #                 D-45470 Muelheim/Ruhr               #
                  #                      Germany                        #
                  #                                                     #
                  #                  All rights reserved                #
                  #                        -***-                        #
                  #######################################################



                         Program Version 5.0.4 -  RELEASE  -

 With contributions from (in alphabetic order):
   Daniel Aravena         : Magnetic Suceptibility
   Michael Atanasov       : Ab Initio Ligand Field Theory (pilot matlab implementation)
   Alexander A. Auer      : GIAO ZORA, VPT2 properties, NMR spectrum
   Ute Becker             : Parallelization
   Giovanni Bistoni       : ED, misc. LED, open-shell LED, HFLD
   Martin Brehm           : Molecular dynamics
   Dmytro Bykov           : SCF Hessian
   Vijay G. Chilkuri      : MRCI spin determinant printing, contributions to CSF-ICE
   Dipayan Datta          : RHF DLPNO-CCSD density
   Achintya Kumar Dutta   : EOM-CC, STEOM-CC
   Dmitry Ganyushin       : Spin-Orbit,Spin-Spin,Magnetic field MRCI
   Miquel Garcia          : C-PCM and meta-GGA Hessian, CC/C-PCM, Gaussian charge scheme
   Yang Guo               : DLPNO-NEVPT2, F12-NEVPT2, CIM, IAO-localization
   Andreas Hansen         : Spin unrestricted coupled pair/coupled cluster methods
   Benjamin Helmich-Paris : MC-RPA, TRAH-SCF, COSX integrals
   Lee Huntington         : MR-EOM, pCC
   Robert Izsak           : Overlap fitted RIJCOSX, COSX-SCS-MP3, EOM
   Marcus Kettner         : VPT2
   Christian Kollmar      : KDIIS, OOCD, Brueckner-CCSD(T), CCSD density, CASPT2, CASPT2-K
   Simone Kossmann        : Meta GGA functionals, TD-DFT gradient, OOMP2, MP2 Hessian
   Martin Krupicka        : Initial AUTO-CI
   Lucas Lang             : DCDCAS
   Marvin Lechner         : AUTO-CI (C++ implementation), FIC-MRCC
   Dagmar Lenk            : GEPOL surface, SMD
   Dimitrios Liakos       : Extrapolation schemes; Compound Job, initial MDCI parallelization
   Dimitrios Manganas     : Further ROCIS development; embedding schemes
   Dimitrios Pantazis     : SARC Basis sets
   Anastasios Papadopoulos: AUTO-CI, single reference methods and gradients
   Taras Petrenko         : DFT Hessian,TD-DFT gradient, ASA, ECA, R-Raman, ABS, FL, XAS/XES, NRVS
   Peter Pinski           : DLPNO-MP2, DLPNO-MP2 Gradient
   Christoph Reimann      : Effective Core Potentials
   Marius Retegan         : Local ZFS, SOC
   Christoph Riplinger    : Optimizer, TS searches, QM/MM, DLPNO-CCSD(T), (RO)-DLPNO pert. Triples
   Tobias Risthaus        : Range-separated hybrids, TD-DFT gradient, RPA, STAB
   Michael Roemelt        : Original ROCIS implementation
   Masaaki Saitow         : Open-shell DLPNO-CCSD energy and density
   Barbara Sandhoefer     : DKH picture change effects
   Avijit Sen             : IP-ROCIS
   Kantharuban Sivalingam : CASSCF convergence, NEVPT2, FIC-MRCI
   Bernardo de Souza      : ESD, SOC TD-DFT
   Georgi Stoychev        : AutoAux, RI-MP2 NMR, DLPNO-MP2 response
   Willem Van den Heuvel  : Paramagnetic NMR
   Boris Wezisla          : Elementary symmetry handling
   Frank Wennmohs         : Technical directorship


 We gratefully acknowledge several colleagues who have allowed us to
 interface, adapt or use parts of their codes:
   Stefan Grimme, W. Hujo, H. Kruse, P. Pracht,  : VdW corrections, initial TS optimization,
                  C. Bannwarth, S. Ehlert          DFT functionals, gCP, sTDA/sTD-DF
   Ed Valeev, F. Pavosevic, A. Kumar             : LibInt (2-el integral package), F12 methods
   Garnet Chan, S. Sharma, J. Yang, R. Olivares  : DMRG
   Ulf Ekstrom                                   : XCFun DFT Library
   Mihaly Kallay                                 : mrcc  (arbitrary order and MRCC methods)
   Jiri Pittner, Ondrej Demel                    : Mk-CCSD
   Frank Weinhold                                : gennbo (NPA and NBO analysis)
   Christopher J. Cramer and Donald G. Truhlar   : smd solvation model
   Lars Goerigk                                  : TD-DFT with DH, B97 family of functionals
   V. Asgeirsson, H. Jonsson                     : NEB implementation
   FAccTs GmbH                                   : IRC, NEB, NEB-TS, DLPNO-Multilevel, CI-OPT
                                                   MM, QMMM, 2- and 3-layer-ONIOM, Crystal-QMMM,
                                                   LR-CPCM, SF, NACMEs, symmetry and pop. for TD-DFT,
                                                   nearIR, NL-DFT gradient (VV10), updates on ESD,
                                                   ML-optimized integration grids
   S Lehtola, MJT Oliveira, MAL Marques          : LibXC Library
   Liviu Ungur et al                             : ANISO software


 Your calculation uses the libint2 library for the computation of 2-el integrals
 For citations please refer to: http://libint.valeyev.net

 Your ORCA version has been built with support for libXC version: 5.1.0
 For citations please refer to: https://tddft.org/programs/libxc/

 This ORCA versions uses:
   CBLAS   interface :  Fast vector & matrix operations
   LAPACKE interface :  Fast linear algebra routines
   Shared memory     :  Shared parallel matrices


Your calculation utilizes the atom-pairwise dispersion correction
based on tight binding partial charges (D4)
Cite in your paper:
E.Caldeweyher, C.Bannwarth, S.Grimme, J.Chem.Phys., (2017), 147, 034112.
E.Caldeweyher, S.Ehlert, A.Hansen, H.Neugebauer, S.Grimme, J.Chem.Phys., (2018), in progress.
   

================================================================================

----- Orbital basis set information -----
Your calculation utilizes the basis: 6-311+G**
   H, Li - Ne  : R. Krishnan, J. S. Binkley, R. Seeger and J. A. Pople, J. Chem. Phys. 72, 650 (1980).
   Na - Ar     : A. D. McLean and G. S. Chandler J. Chem. Phys. 72, 5639, (1980).
   K  - Ca     : J.-P. Blaudeau, M. P. McGrath, L. A. Curtiss and L. Radom, J. Chem. Phys. 107, 5016 (1997).
   Ga - Kr     : L. A. Curtiss, M. P. McGrath, J.-P. Blandeau, N. E. Davis, R. C. Binning and L. Radom, J. Chem. Phys. 103, 6104 (1995).
   Pol./Diff.
   H, Li - Cl  : T. Clark, J. Chandrasekhar and P. v. R. Schleyer, J. Comp. Chem. 4, 294 (1983).
   H - Ne      : M. J. Frisch, J. A. Pople and J. S. Binkley, J. Chem. Phys. 80, 3265 (1984).

----- AuxJ basis set information -----
Your calculation utilizes the auxiliary basis: def2/J
   F. Weigend, Phys. Chem. Chem. Phys. 8, 1057 (2006).

================================================================================
                                        WARNINGS
                       Please study these warnings very carefully!
================================================================================

INFO   : Checking CIS options ...

WARNING: CIS/ROCIS methods need fully converged wavefunctions
  ===> : Setting SCFConvForced true
         You can overwrite this default with %scf ConvForced false 


INFO   : the flag for use of the SHARK integral package has been found!

================================================================================
                                       INPUT FILE
================================================================================
NAME = 78Dihydro9Hcyclopentaapyrene_spectra.inp
|  1> !B3LYP 6-311+G**  D4
|  2> 
|  3> %maxcore 5000
|  4> %pal
|  5> nprocs 7
|  6> end
|  7> 
|  8> %TDDFT
|  9>   NROOTS 1000
| 10>   END
| 11> 
| 12> %scf
| 13> stabperform true
| 14> STABDTol 1e-5
| 15> STABRTol 1e-5
| 16> end
| 17>   
| 18> * XYZ 0 1
| 19>   C   -3.35033919707563      1.65437419580195     -0.01265869076846
| 20>   C   -4.26277663219403      0.60498341427227     -0.03856807631746
| 21>   C   -3.82154892042965     -0.71422867676207     -0.04592897308486
| 22>   C   -2.45251273772298     -1.01382756955033     -0.02758287068478
| 23>   C   -1.96186346635643     -2.36196427913232     -0.03282490824908
| 24>   C   -0.62995551325856     -2.62745733651453     -0.01258743184992
| 25>   C   0.34468311917300     -1.57464472931411      0.01456633867180
| 26>   C   1.72308656494427     -1.83612960453215      0.03732966264129
| 27>   C   2.62893101795652     -0.78556517728542      0.05200600913917
| 28>   C   2.19393537732878      0.54261886116513      0.04640969148882
| 29>   C   0.82884503806801      0.85427537913658      0.03811617158643
| 30>   C   0.33154790917972      2.20055277850404      0.04765771168255
| 31>   C   -1.00183797523034      2.46195180199058      0.03272801715106
| 32>   C   -1.97112722168548      1.40507705580027      0.00556319333003
| 33>   C   -1.50873821992223      0.05572109516752     -0.00215984579299
| 34>   C   -0.11167208659671     -0.22162455222333      0.01715108202537
| 35>   C   3.37439272276955      1.48738597984239      0.07417586369587
| 36>   C   4.56291979074032      0.57950853246148     -0.32324850677279
| 37>   C   4.13932596372885     -0.84640613635946      0.09928088606659
| 38>   H   -3.70195374548558      2.68171670430622     -0.00628663402081
| 39>   H   -5.32704948968248      0.81681563572882     -0.05272826982039
| 40>   H   -4.54013389486298     -1.52816066112217     -0.06563605253952
| 41>   H   -2.68309109438509     -3.17365908572634     -0.05260798256492
| 42>   H   -0.27629637056009     -3.65442906235706     -0.01602277543092
| 43>   H   2.06911594180364     -2.86624671973311      0.03751049792632
| 44>   H   1.04354054070200      3.01863443176854      0.07078891575090
| 45>   H   -1.35858189480242      3.48778282215375      0.04099701771447
| 46>   H   3.26072728697370      2.34168963833281     -0.59878061009192
| 47>   H   3.50995819100506      1.89802896018186      1.08371371102638
| 48>   H   4.69057613363393      0.61081246189124     -1.40937438593431
| 49>   H   5.50663453474056      0.89460248222845      0.12681077468491
| 50>   H   4.47393919343030     -1.06816809024595      1.12092327613828
| 51>   H   4.55851913407249     -1.62312054987555     -0.54603280679709
| 52> **                         ****END OF INPUT****
================================================================================

                       ****************************
                       * Single Point Calculation *
                       ****************************

---------------------------------
CARTESIAN COORDINATES (ANGSTROEM)
---------------------------------
  C     -3.350339    1.654374   -0.012659
  C     -4.262777    0.604983   -0.038568
  C     -3.821549   -0.714229   -0.045929
  C     -2.452513   -1.013828   -0.027583
  C     -1.961863   -2.361964   -0.032825
  C     -0.629956   -2.627457   -0.012587
  C      0.344683   -1.574645    0.014566
  C      1.723087   -1.836130    0.037330
  C      2.628931   -0.785565    0.052006
  C      2.193935    0.542619    0.046410
  C      0.828845    0.854275    0.038116
  C      0.331548    2.200553    0.047658
  C     -1.001838    2.461952    0.032728
  C     -1.971127    1.405077    0.005563
  C     -1.508738    0.055721   -0.002160
  C     -0.111672   -0.221625    0.017151
  C      3.374393    1.487386    0.074176
  C      4.562920    0.579509   -0.323249
  C      4.139326   -0.846406    0.099281
  H     -3.701954    2.681717   -0.006287
  H     -5.327049    0.816816   -0.052728
  H     -4.540134   -1.528161   -0.065636
  H     -2.683091   -3.173659   -0.052608
  H     -0.276296   -3.654429   -0.016023
  H      2.069116   -2.866247    0.037510
  H      1.043541    3.018634    0.070789
  H     -1.358582    3.487783    0.040997
  H      3.260727    2.341690   -0.598781
  H      3.509958    1.898029    1.083714
  H      4.690576    0.610812   -1.409374
  H      5.506635    0.894602    0.126811
  H      4.473939   -1.068168    1.120923
  H      4.558519   -1.623121   -0.546033

----------------------------
CARTESIAN COORDINATES (A.U.)
----------------------------
  NO LB      ZA    FRAG     MASS         X           Y           Z
   0 C     6.0000    0    12.011   -6.331224    3.126314   -0.023921
   1 C     6.0000    0    12.011   -8.055480    1.143253   -0.072883
   2 C     6.0000    0    12.011   -7.221681   -1.349697   -0.086793
   3 C     6.0000    0    12.011   -4.634577   -1.915856   -0.052124
   4 C     6.0000    0    12.011   -3.707385   -4.463466   -0.062030
   5 C     6.0000    0    12.011   -1.190443   -4.965175   -0.023787
   6 C     6.0000    0    12.011    0.651357   -2.975647    0.027526
   7 C     6.0000    0    12.011    3.256162   -3.469782    0.070543
   8 C     6.0000    0    12.011    4.967960   -1.484503    0.098277
   9 C     6.0000    0    12.011    4.145937    1.025401    0.087702
  10 C     6.0000    0    12.011    1.566290    1.614347    0.072029
  11 C     6.0000    0    12.011    0.626535    4.158442    0.090060
  12 C     6.0000    0    12.011   -1.893199    4.652415    0.061847
  13 C     6.0000    0    12.011   -3.724891    2.655211    0.010513
  14 C     6.0000    0    12.011   -2.851102    0.105298   -0.004082
  15 C     6.0000    0    12.011   -0.211030   -0.418810    0.032411
  16 C     6.0000    0    12.011    6.376678    2.810752    0.140172
  17 C     6.0000    0    12.011    8.622669    1.095112   -0.610851
  18 C     6.0000    0    12.011    7.822192   -1.599476    0.187614
  19 H     1.0000    0     1.008   -6.995679    5.067710   -0.011880
  20 H     1.0000    0     1.008  -10.066665    1.543558   -0.099642
  21 H     1.0000    0     1.008   -8.579610   -2.887805   -0.124034
  22 H     1.0000    0     1.008   -5.070307   -5.997347   -0.099415
  23 H     1.0000    0     1.008   -0.522124   -6.905870   -0.030279
  24 H     1.0000    0     1.008    3.910062   -5.416421    0.070885
  25 H     1.0000    0     1.008    1.972006    5.704392    0.133772
  26 H     1.0000    0     1.008   -2.567348    6.590954    0.077473
  27 H     1.0000    0     1.008    6.161882    4.425152   -1.131531
  28 H     1.0000    0     1.008    6.632860    3.586755    2.047922
  29 H     1.0000    0     1.008    8.863904    1.154268   -2.663332
  30 H     1.0000    0     1.008   10.406031    1.690554    0.239638
  31 H     1.0000    0     1.008    8.454520   -2.018545    2.118238
  32 H     1.0000    0     1.008    8.614353   -3.067253   -1.031852

--------------------------------
INTERNAL COORDINATES (ANGSTROEM)
--------------------------------
 C      0   0   0     0.000000000000     0.00000000     0.00000000
 C      1   0   0     1.390839452138     0.00000000     0.00000000
 C      2   1   0     1.391063124938   120.50032620     0.00000000
 C      3   2   1     1.401554902811   120.82912256     0.00000000
 C      4   3   2     1.434655629123   122.33616058   179.92187382
 C      5   4   3     1.358261725329   121.26421645   180.10566358
 C      6   5   4     1.434946750567   121.52748122     0.00000000
 C      7   6   5     1.403170897717   122.06006011   179.91868828
 C      8   7   6     1.387247340598   120.03310799   179.46556059
 C      9   8   7     1.397614169265   121.09132715     0.08978304
 C     10   9   8     1.400239337403   120.99540188     0.58816675
 C     11  10   9     1.435220649042   123.12986509   179.25987027
 C     12  11  10     1.358848873864   121.35747220   179.68448728
 C      1   2   3     1.401679982782   120.76828799     0.04545133
 C     14   1   2     1.426402728117   119.15323410   359.97196993
 C     15  14   1     1.424460354290   120.13521476   180.05228523
 C     10   9   8     1.512228624666   110.52917247   179.63686792
 C     17  10   9     1.547509024531   103.19632731    16.19215982
 C      9   8   7     1.512358895403   128.46210579   178.91706874
 H      1   2   3     1.085866485136   120.10035031   180.04675870
 H      2   1   3     1.085241962105   119.75728562   179.97408270
 H      3   2   1     1.085927257981   120.06736912   179.96577423
 H      5   4   3     1.086006040735   118.37766528     0.05301427
 H      6   5   4     1.086166431299   120.26838426   179.94479508
 H      8   7   6     1.086681937542   119.30524202   359.81359534
 H     12  11  10     1.084770091472   118.69417533   359.46944727
 H     13  12  11     1.086123327459   120.25882777   179.95740486
 H     17  10   9     1.093446380861   113.30772331   137.93920414
 H     17  10   9     1.098258766718   110.29356843   257.40049238
 H     18  17  10     1.094050046050   109.13433983    90.99058207
 H     18  17  10     1.091986754521   112.86814959   210.39946088
 H     19   9   8     1.097678254715   109.97819825   282.28733787
 H     19   9   8     1.093360853709   113.14316056    41.60996574

---------------------------
INTERNAL COORDINATES (A.U.)
---------------------------
 C      0   0   0     0.000000000000     0.00000000     0.00000000
 C      1   0   0     2.628305660795     0.00000000     0.00000000
 C      2   1   0     2.628728341129   120.50032620     0.00000000
 C      3   2   1     2.648554927967   120.82912256     0.00000000
 C      4   3   2     2.711106235530   122.33616058   179.92187382
 C      5   4   3     2.566742679060   121.26421645   180.10566358
 C      6   5   4     2.711656375331   121.52748122     0.00000000
 C      7   6   5     2.651608715774   122.06006011   179.91868828
 C      8   7   6     2.621517553741   120.03310799   179.46556059
 C      9   8   7     2.641108020799   121.09132715     0.08978304
 C     10   9   8     2.646068869634   120.99540188     0.58816675
 C     11  10   9     2.712173968437   123.12986509   179.25987027
 C     12  11  10     2.567852228991   121.35747220   179.68448728
 C      1   2   3     2.648791294858   120.76828799     0.04545133
 C     14   1   2     2.695510512820   119.15323410   359.97196993
 C     15  14   1     2.691839958237   120.13521476   180.05228523
 C     10   9   8     2.857697952494   110.52917247   179.63686792
 C     17  10   9     2.924368246135   103.19632731    16.19215982
 C      9   8   7     2.857944128511   128.46210579   178.91706874
 H      1   2   3     2.051990274910   120.10035031   180.04675870
 H      2   1   3     2.050810097418   119.75728562   179.97408270
 H      3   2   1     2.052105118944   120.06736912   179.96577423
 H      5   4   3     2.052253996773   118.37766528     0.05301427
 H      6   5   4     2.052557091013   120.26838426   179.94479508
 H      8   7   6     2.053531256634   119.30524202   359.81359534
 H     12  11  10     2.049918391150   118.69417533   359.46944727
 H     13  12  11     2.052475636561   120.25882777   179.95740486
 H     17  10   9     2.066314201954   113.30772331   137.93920414
 H     17  10   9     2.075408293275   110.29356843   257.40049238
 H     18  17  10     2.067454963839   109.13433983    90.99058207
 H     18  17  10     2.063555907914   112.86814959   210.39946088
 H     19   9   8     2.074311284572   109.97819825   282.28733787
 H     19   9   8     2.066152579061   113.14316056    41.60996574

---------------------
BASIS SET INFORMATION
---------------------
There are 2 groups of distinct atoms

 Group   1 Type C   : 12s6p1d contracted to 5s4p1d pattern {63111/3111/1}
 Group   2 Type H   : 5s1p contracted to 3s1p pattern {311/1}

Atom   0C    basis set group =>   1
Atom   1C    basis set group =>   1
Atom   2C    basis set group =>   1
Atom   3C    basis set group =>   1
Atom   4C    basis set group =>   1
Atom   5C    basis set group =>   1
Atom   6C    basis set group =>   1
Atom   7C    basis set group =>   1
Atom   8C    basis set group =>   1
Atom   9C    basis set group =>   1
Atom  10C    basis set group =>   1
Atom  11C    basis set group =>   1
Atom  12C    basis set group =>   1
Atom  13C    basis set group =>   1
Atom  14C    basis set group =>   1
Atom  15C    basis set group =>   1
Atom  16C    basis set group =>   1
Atom  17C    basis set group =>   1
Atom  18C    basis set group =>   1
Atom  19H    basis set group =>   2
Atom  20H    basis set group =>   2
Atom  21H    basis set group =>   2
Atom  22H    basis set group =>   2
Atom  23H    basis set group =>   2
Atom  24H    basis set group =>   2
Atom  25H    basis set group =>   2
Atom  26H    basis set group =>   2
Atom  27H    basis set group =>   2
Atom  28H    basis set group =>   2
Atom  29H    basis set group =>   2
Atom  30H    basis set group =>   2
Atom  31H    basis set group =>   2
Atom  32H    basis set group =>   2
---------------------------------
AUXILIARY/J BASIS SET INFORMATION
---------------------------------
There are 2 groups of distinct atoms

 Group   1 Type C   : 12s5p4d2f1g contracted to 6s4p3d1f1g pattern {711111/2111/211/2/1}
 Group   2 Type H   : 5s2p1d contracted to 3s1p1d pattern {311/2/1}

Atom   0C    basis set group =>   1
Atom   1C    basis set group =>   1
Atom   2C    basis set group =>   1
Atom   3C    basis set group =>   1
Atom   4C    basis set group =>   1
Atom   5C    basis set group =>   1
Atom   6C    basis set group =>   1
Atom   7C    basis set group =>   1
Atom   8C    basis set group =>   1
Atom   9C    basis set group =>   1
Atom  10C    basis set group =>   1
Atom  11C    basis set group =>   1
Atom  12C    basis set group =>   1
Atom  13C    basis set group =>   1
Atom  14C    basis set group =>   1
Atom  15C    basis set group =>   1
Atom  16C    basis set group =>   1
Atom  17C    basis set group =>   1
Atom  18C    basis set group =>   1
Atom  19H    basis set group =>   2
Atom  20H    basis set group =>   2
Atom  21H    basis set group =>   2
Atom  22H    basis set group =>   2
Atom  23H    basis set group =>   2
Atom  24H    basis set group =>   2
Atom  25H    basis set group =>   2
Atom  26H    basis set group =>   2
Atom  27H    basis set group =>   2
Atom  28H    basis set group =>   2
Atom  29H    basis set group =>   2
Atom  30H    basis set group =>   2
Atom  31H    basis set group =>   2
Atom  32H    basis set group =>   2


           ************************************************************
           *        Program running with 7 parallel MPI-processes     *
           *              working on a common directory               *
           ************************************************************
------------------------------------------------------------------------------
                           ORCA GTO INTEGRAL CALCULATION
                           -- RI-GTO INTEGRALS CHOSEN --
------------------------------------------------------------------------------
------------------------------------------------------------------------------
                   ___                                                        
                  /   \      - P O W E R E D   B Y -                         
                 /     \                                                     
                 |  |  |   _    _      __       _____    __    __             
                 |  |  |  | |  | |    /  \     |  _  \  |  |  /  |          
                  \  \/   | |  | |   /    \    | | | |  |  | /  /          
                 / \  \   | |__| |  /  /\  \   | |_| |  |  |/  /          
                |  |  |   |  __  | /  /__\  \  |    /   |      \           
                |  |  |   | |  | | |   __   |  |    \   |  |\   \          
                \     /   | |  | | |  |  |  |  | |\  \  |  | \   \       
                 \___/    |_|  |_| |__|  |__|  |_| \__\ |__|  \__/        
                                                                              
                      - O R C A' S   B I G   F R I E N D -                    
                                      &                                       
                       - I N T E G R A L  F E E D E R -                       
                                                                              
 v1 FN, 2020, v2 2021                                                         
------------------------------------------------------------------------------


Reading SHARK input file 78Dihydro9Hcyclopentaapyrene_spectra.SHARKINP.tmp ... ok
----------------------
SHARK INTEGRAL PACKAGE
----------------------

Number of atoms                             ...     33
Number of basis functions                   ...    502
Number of shells                            ...    246
Maximum angular momentum                    ...      2
Integral batch strategy                     ... SHARK/LIBINT Hybrid
RI-J (if used) integral strategy            ... SPLIT-RIJ (Revised 2003 algorithm where possible)
Printlevel                                  ...      1
Contraction scheme used                     ... SEGMENTED contraction
Coulomb Range Separation                    ... NOT USED
Exchange Range Separation                   ... NOT USED
Finite Nucleus Model                        ... NOT USED
Auxiliary Coulomb fitting basis             ... AVAILABLE
   # of basis functions in Aux-J            ...   1085
   # of shells in Aux-J                     ...    355
   Maximum angular momentum in Aux-J        ...      4
Auxiliary J/K fitting basis                 ... NOT available
Auxiliary Correlation fitting basis         ... NOT available
Auxiliary 'external' fitting basis          ... NOT available
Integral threshold                          ...     1.000000e-10
Primitive cut-off                           ...     1.000000e-11
Primitive pair pre-selection threshold      ...     1.000000e-11

Calculating pre-screening integrals         ... done (  0.0 sec) Dimension = 246
Organizing shell pair data                  ... done (  0.1 sec)
Shell pair information
Total number of shell pairs                 ...     30381
Shell pairs after pre-screening             ...     24331
Total number of primitive shell pairs       ...     99676
Primitive shell pairs kept                  ...     53746
          la=0 lb=0:   7277 shell pairs
          la=1 lb=0:  10068 shell pairs
          la=1 lb=1:   3453 shell pairs
          la=2 lb=0:   1978 shell pairs
          la=2 lb=1:   1397 shell pairs
          la=2 lb=2:    158 shell pairs

Calculating one electron integrals          ... done (  0.0 sec)
Calculating RI/J V-Matrix + Cholesky decomp.... done (  0.1 sec)
Calculating Nuclear repulsion               ... done (  0.0 sec) ENN=   1294.669527030331 Eh

SHARK setup successfully completed in   0.5 seconds

Maximum memory used throughout the entire GTOINT-calculation: 33.0 MB


           ************************************************************
           *        Program running with 7 parallel MPI-processes     *
           *              working on a common directory               *
           ************************************************************
-------------------------------------------------------------------------------
                                 ORCA SCF
-------------------------------------------------------------------------------

------------
SCF SETTINGS
------------
Hamiltonian:
 Density Functional     Method          .... DFT(GTOs)
 Exchange Functional    Exchange        .... B88
   X-Alpha parameter    XAlpha          ....  0.666667
   Becke's b parameter  XBeta           ....  0.004200
 Correlation Functional Correlation     .... LYP
 LDA part of GGA corr.  LDAOpt          .... VWN-5
 Gradients option       PostSCFGGA      .... off
 Hybrid DFT is turned on
   Fraction HF Exchange ScalHFX         ....  0.200000
   Scaling of DF-GGA-X  ScalDFX         ....  0.720000
   Scaling of DF-GGA-C  ScalDFC         ....  0.810000
   Scaling of DF-LDA-C  ScalLDAC        ....  1.000000
   Perturbative correction              ....  0.000000
   Density functional embedding theory  .... OFF
   NL short-range parameter             ....  4.800000
 RI-approximation to the Coulomb term is turned on
   Number of AuxJ basis functions       .... 1085
   RIJ-COSX (HFX calculated with COS-X)).... on


General Settings:
 Integral files         IntName         .... 78Dihydro9Hcyclopentaapyrene_spectra
 Hartree-Fock type      HFTyp           .... RHF
 Total Charge           Charge          ....    0
 Multiplicity           Mult            ....    1
 Number of Electrons    NEL             ....  128
 Basis Dimension        Dim             ....  502
 Nuclear Repulsion      ENuc            ....   1294.6695270303 Eh

Convergence Acceleration:
 DIIS                   CNVDIIS         .... on
   Start iteration      DIISMaxIt       ....    12
   Startup error        DIISStart       ....  0.200000
   # of expansion vecs  DIISMaxEq       ....     5
   Bias factor          DIISBfac        ....   1.050
   Max. coefficient     DIISMaxC        ....  10.000
 Trust-Rad. Augm. Hess. CNVTRAH         .... auto
   Auto Start mean grad. ratio tolernc. ....  1.125000
   Auto Start start iteration           ....    20
   Auto Start num. interpolation iter.  ....    10
   Max. Number of Micro iterations      ....    16
   Max. Number of Macro iterations      .... Maxiter - #DIIS iter
   Number of Davidson start vectors     ....     2
   Converg. threshold I  (grad. norm)   ....   5.000e-05
   Converg. threshold II (energy diff.) ....   1.000e-06
   Grad. Scal. Fac. for Micro threshold ....   0.100
   Minimum threshold for Micro iter.    ....   0.010
   NR start threshold (gradient norm)   ....   0.001
   Initial trust radius                 ....   0.400
   Minimum AH scaling param. (alpha)    ....   1.000
   Maximum AH scaling param. (alpha)    .... 1000.000
   Orbital update algorithm             .... Taylor
   White noise on init. David. guess    .... on
   Maximum white noise                  ....   0.010
   Quad. conv. algorithm                .... NR
 SOSCF                  CNVSOSCF        .... on
   Start iteration      SOSCFMaxIt      ....   150
   Startup grad/error   SOSCFStart      ....  0.003300
 Level Shifting         CNVShift        .... on
   Level shift para.    LevelShift      ....    0.2500
   Turn off err/grad.   ShiftErr        ....    0.0010
 Zerner damping         CNVZerner       .... off
 Static damping         CNVDamp         .... on
   Fraction old density DampFac         ....    0.7000
   Max. Damping (<1)    DampMax         ....    0.9800
   Min. Damping (>=0)   DampMin         ....    0.0000
   Turn off err/grad.   DampErr         ....    0.1000
 Fernandez-Rico         CNVRico         .... off

SCF Procedure:
 Maximum # iterations   MaxIter         ....   125
 SCF integral mode      SCFMode         .... Direct
   Integral package                     .... SHARK and LIBINT hybrid scheme
 Reset frequency        DirectResetFreq ....    20
 Integral Threshold     Thresh          ....  1.000e-10 Eh
 Primitive CutOff       TCut            ....  1.000e-11 Eh

Convergence Tolerance:
 Convergence Check Mode ConvCheckMode   .... Total+1el-Energy
 Convergence forced     ConvForced      .... 1
 Energy Change          TolE            ....  1.000e-06 Eh
 1-El. energy change                    ....  1.000e-03 Eh
 Orbital Gradient       TolG            ....  5.000e-05
 Orbital Rotation angle TolX            ....  5.000e-05
 DIIS Error             TolErr          ....  1.000e-06


Diagonalization of the overlap matrix:
Smallest eigenvalue                        ... 6.156e-09
Time for diagonalization                   ...    0.022 sec
Threshold for overlap eigenvalues          ... 1.000e-08
Number of eigenvalues below threshold      ... 2
Smallest eigenvalue above threshold        ... 3.716e-08
Time for construction of square roots      ...    0.038 sec
Total time needed                          ...    0.061 sec

Time for model grid setup =    0.254 sec

------------------------------
INITIAL GUESS: MODEL POTENTIAL
------------------------------
Loading Hartree-Fock densities                     ... done
Calculating cut-offs                               ... done
Initializing the effective Hamiltonian             ... done
Setting up the integral package (SHARK)            ... done
Starting the Coulomb interaction                   ... done (   0.3 sec)
Reading the grid                                   ... done
Mapping shells                                     ... done
Starting the XC term evaluation                    ... done (   0.3 sec)
  promolecular density results
     # of electrons  =    127.996002168
     EX              =   -101.937487004
     EC              =     -4.310013779
     EX+EC           =   -106.247500784
Transforming the Hamiltonian                       ... done (   0.0 sec)
Diagonalizing the Hamiltonian                      ... done (   0.0 sec)
Back transforming the eigenvectors                 ... done (   0.0 sec)
Now organizing SCF variables                       ... done
                      ------------------
                      INITIAL GUESS DONE (   0.9 sec)
                      ------------------
-------------------
DFT GRID GENERATION
-------------------

General Integration Accuracy     IntAcc      ... 4.388
Radial Grid Type                 RadialGrid  ... OptM3 with GC (2021)
Angular Grid (max. ang.)         AngularGrid ... 4 (Lebedev-302)
Angular grid pruning method      GridPruning ... 4 (adaptive)
Weight generation scheme         WeightScheme... Becke
Basis function cutoff            BFCut       ... 1.0000e-10
Integration weight cutoff        WCut        ... 1.0000e-14
Angular grids for H and He will be reduced by one unit
Partially contracted basis set               ... off
Rotationally invariant grid construction     ... off

Total number of grid points                  ...   161817
Total number of batches                      ...     2543
Average number of points per batch           ...       63
Average number of grid points per atom       ...     4904
Time for grid setup =    0.990 sec

--------------------
COSX GRID GENERATION
--------------------

GRIDX 1
-------
General Integration Accuracy     IntAcc      ... 3.816
Radial Grid Type                 RadialGrid  ... OptM3 with GC (2021)
Angular Grid (max. ang.)         AngularGrid ... 1 (Lebedev-50)
Angular grid pruning method      GridPruning ... 4 (adaptive)
Weight generation scheme         WeightScheme... Becke
Basis function cutoff            BFCut       ... 1.0000e-10
Integration weight cutoff        WCut        ... 1.0000e-14
Angular grids for H and He will be reduced by one unit
Partially contracted basis set               ... on
Rotationally invariant grid construction     ... off

Total number of grid points                  ...    20607
Total number of batches                      ...      341
Average number of points per batch           ...       60
Average number of grid points per atom       ...      624
UseSFitting                                  ... on

GRIDX 2
-------
General Integration Accuracy     IntAcc      ... 4.020
Radial Grid Type                 RadialGrid  ... OptM3 with GC (2021)
Angular Grid (max. ang.)         AngularGrid ... 2 (Lebedev-110)
Angular grid pruning method      GridPruning ... 4 (adaptive)
Weight generation scheme         WeightScheme... Becke
Basis function cutoff            BFCut       ... 1.0000e-10
Integration weight cutoff        WCut        ... 1.0000e-14
Angular grids for H and He will be reduced by one unit
Partially contracted basis set               ... on
Rotationally invariant grid construction     ... off

Total number of grid points                  ...    48378
Total number of batches                      ...      772
Average number of points per batch           ...       62
Average number of grid points per atom       ...     1466
UseSFitting                                  ... on

GRIDX 3
-------
General Integration Accuracy     IntAcc      ... 4.338
Radial Grid Type                 RadialGrid  ... OptM3 with GC (2021)
Angular Grid (max. ang.)         AngularGrid ... 3 (Lebedev-194)
Angular grid pruning method      GridPruning ... 4 (adaptive)
Weight generation scheme         WeightScheme... Becke
Basis function cutoff            BFCut       ... 1.0000e-10
Integration weight cutoff        WCut        ... 1.0000e-14
Angular grids for H and He will be reduced by one unit
Partially contracted basis set               ... on
Rotationally invariant grid construction     ... off

Total number of grid points                  ...   104231
Total number of batches                      ...     1646
Average number of points per batch           ...       63
Average number of grid points per atom       ...     3159
UseSFitting                                  ... on

Time for X-Grid setup             =    1.402 sec

--------------
SCF ITERATIONS
--------------
ITER       Energy         Delta-E        Max-DP      RMS-DP      [F,P]     Damp
               ***  Starting incremental Fock matrix formation  ***
  0   -731.8236318477   0.00000000000013.85999761  0.09463376  0.1693567 0.7000
  1   -731.9920097009  -0.168377853158 8.08751180  0.06821714  0.0902990 0.7000
                               ***Turning on DIIS***
  2   -732.0698659262  -0.07785622531059.82738835  0.45778937  0.0377912 0.0000
  3   -732.1805455802  -0.11067965400375.37803109  0.46521516  0.0430976 0.0000
  4   -732.2085303210  -0.02798474082786.03828688  0.47118171  0.0077876 0.0000
                      *** Initiating the SOSCF procedure ***
                           *** Shutting down DIIS ***
                      *** Re-Reading the Fockian *** 
                      *** Removing any level shift *** 
ITER      Energy       Delta-E        Grad      Rot      Max-DP    RMS-DP
  5   -732.20961039  -0.0010800729  0.000469  0.000469 59.891834  0.505322
               *** Restarting incremental Fock matrix formation ***
  6   -732.20975160  -0.0001412107  0.000506  0.001668 182.402706  1.335309
  7   -732.20968352   0.0000680819  0.000370  0.001056 135.814549  0.709226
  8   -732.20965864   0.0000248843  0.000271  0.000516 66.548068  0.631717
  9   -732.20966897  -0.0000103307  0.000286  0.002204 206.196455  1.127114
 10   -732.20961360   0.0000553648  0.000279  0.004573 638.044353  3.155647
 11   -732.20942375   0.0001898497  0.000484  0.002008 451.446428  1.898953
 12   -732.20949579  -0.0000720392  0.001853  0.002687 510.096381  3.606700
 13   -732.20924086   0.0002549305  0.002941  0.005099 590.061715  3.675640
 14   -732.20905558   0.0001852818  0.002717  0.035925 15483.967462 72.313962
 15   -732.20571168   0.0033439032  0.015628  0.020032 5526.970233 37.228414
 16   -732.20621123  -0.0004995543  0.012353  0.291223 508407.285705 2504.373440
 17   -732.06255145   0.1436597797  0.103693  0.222720 149461.672156 697.699090
 18   -732.09773949  -0.0351880366  0.020518  0.076222 255818.286307 1672.592475
 19   -732.14790146  -0.0501619725  0.034053  0.065203 80811.901176 582.646885

 WARNING: the maximum gradient error descreased on average only by a factor   0.6
          during the last 20 iterations

                      *** Initiating the TRAH-SCF procedure ***

              ***Rediagonalizing the Fockian in SOSCF/NRSCF***

TRAH GRIDX
----------

General Integration Accuracy     IntAcc      ... 3.067
Radial Grid Type                 RadialGrid  ... OptM3 with GC (2021)
Angular Grid (max. ang.)         AngularGrid ... 1 (Lebedev-50)
Angular grid pruning method      GridPruning ... 4 (adaptive)
Weight generation scheme         WeightScheme... Becke
Basis function cutoff            BFCut       ... 1.0000e-10
Integration weight cutoff        WCut        ... 1.0000e-14
Angular grids for H and He will be reduced by one unit
Partially contracted basis set               ... on
Rotationally invariant grid construction     ... off

Total number of grid points                  ...    10923
Total number of batches                      ...      188
Average number of points per batch           ...       58
Average number of grid points per atom       ...      331


TRAH GRID
---------

General Integration Accuracy     IntAcc      ... 3.467
Radial Grid Type                 RadialGrid  ... OptM3 with GC (2021)
Angular Grid (max. ang.)         AngularGrid ... 1 (Lebedev-50)
Angular grid pruning method      GridPruning ... 4 (adaptive)
Weight generation scheme         WeightScheme... Becke
Basis function cutoff            BFCut       ... 1.0000e-10
Integration weight cutoff        WCut        ... 1.0000e-14
Angular grids for H and He will be reduced by one unit
Partially contracted basis set               ... off
Rotationally invariant grid construction     ... off

Total number of grid points                  ...    23963
Total number of batches                      ...      386
Average number of points per batch           ...       62
Average number of grid points per atom       ...      726

 --------------------------------------------------------------------------------------------
   Iter.        energy            ||Error||_2        Shift      TRadius  Mac/Mic        Rej.
 --------------------------------------------------------------------------------------------
    0       -732.179141724432     5.038594e-01                     0.400 (TRAH MAcro)   No
    0     dE    -2.686560e-02     3.721510e-01    -5.3140e-02      0.105 (TRAH MIcro)
    0     dE    -3.654367e-02     4.261623e-02    -7.1237e-02      0.161 (TRAH MIcro)
    0     dE    -3.667053e-02     1.086255e-02    -7.1461e-02      0.162 (TRAH MIcro)
    0     dE    -3.668018e-02     4.518175e-03    -7.1473e-02      0.162 (TRAH MIcro)
    1       -732.209735428832     2.259779e-02                     0.480 (TRAH MAcro)   No
    1     dE    -3.010545e-05     3.542561e-02    -6.0210e-05      0.003 (TRAH MIcro)
    1     dE    -4.775943e-05     3.711784e-03    -9.5516e-05      0.005 (TRAH MIcro)
    1     dE    -4.884010e-05     2.183365e-03    -9.7678e-05      0.005 (TRAH MIcro)
    2       -732.209782765618     2.271682e-03                     0.576 (TRAH MAcro)   No
    2     dE    -3.624310e-08     1.930331e-03    -7.2555e-08      0.000 (TRAH MIcro)
    2     dE    -2.031357e-07     6.412716e-04    -4.0627e-07      0.000 (TRAH MIcro)
    2     dE    -2.396716e-07     2.053450e-04    -4.7934e-07      0.000 (TRAH MIcro)
    3       -732.209782859518     2.114447e-04                           (NR   MAcro)
    3     dE    -3.586760e-09     7.368099e-05                           (NR   MIcro)
    3     dE    -4.083460e-09     3.409303e-05                           (NR   MIcro)
    3     dE    -4.212826e-09     7.878897e-06                           (NR   MIcro)
    3     dE    -4.217340e-09     3.146604e-06                           (NR   MIcro)
    4       -732.209782854606     3.580392e-06                           (NR   MAcro)

               *****************************************************
               *                     SUCCESS                       *
               *           SCF CONVERGED AFTER  39 CYCLES          *
               *****************************************************


------------------------------------------------------------------------------
                          SCF STABILITY ANALYSIS                              
------------------------------------------------------------------------------


---------------
TD-DFT XC SETUP
---------------

DFT calculation                         ... on
Name of the grid file                   ... 78Dihydro9Hcyclopentaapyrene_spectra.grid.tmp
Exchange functional (SCF)               ... B88
Exchange functional (TD-DFT)            ... B88
   X-Alpha parameter    XAlpha (SCF)    ...  0.666667
   X-Alpha parameter    XAlpha (TD-DFT) ...  0.666667
   Becke's b parameter  XBeta (SCF)     ...  0.004200
   Becke's b parameter  XBeta (TD-DFT)  ...  0.004200
Correlation functional (SCF)            ... LYP
Correlation functional (TD-DFT)         ... LYP
 LDA part of GGA corr.  LDAOpt (SCF)    ... VWN-5
 LDA part of GGA corr.  LDAOpt (TD-DFT) ... VWN-5
Hybrid DFT                              ... on
   Exchange mixing (SCF)                ...  0.200
   Exchange mixing (TD-DFT)             ...  0.200
   GGA exch. scaling(SCF)               ...  0.720
   GGA exch. scaling (TD-DFT)           ...  0.720
   GGA corr. scaling (SCF)              ...  0.810
   GGA corr. scaling (TD-DFT)           ...  0.810

Electron density on the grid   ... found on disk
Building xc-kernel on the grid ... done
                    *** TD-DFT CALCULATION INITIALIZED ***

                       ****Iteration    0****

   Memory handling for direct AO based CIS:
   Memory per vector needed      ...     7 MB
   Memory needed                 ...    45 MB
   Memory available              ...  5000 MB
   Number of vectors per batch   ...   665
   Number of batches             ...     1
   Time for densities:     0.034
   Time for XC-Integration:     6.069
   Time for K (COSX):    64.347
   Time for Sigma-Completion:     0.065
   Lowest Energy          :     0.076202646632
   Maximum Energy change  :     0.122564708581 (vector 2)
   Maximum residual norm  :     0.005535626352

                       ****Iteration    1****
   Time for densities:     0.022
   Time for XC-Integration:     3.663
   Time for K (COSX):    61.062
   Time for Sigma-Completion:     0.037
   Lowest Energy          :     0.051947746198
   Maximum Energy change  :     0.024254900434 (vector 0)
   Maximum residual norm  :     0.000650903841

                       ****Iteration    2****
   Time for densities:     0.019
   Time for XC-Integration:     3.863
   Time for K (COSX):    61.248
   Time for Sigma-Completion:     0.037
   Lowest Energy          :     0.050485576296
   Maximum Energy change  :     0.001462169901 (vector 0)
   Maximum residual norm  :     0.000181176638

                       ****Iteration    3****
   Time for densities:     0.027
   Time for XC-Integration:     3.937
   Time for K (COSX):    60.987
   Time for Sigma-Completion:     0.029
   Lowest Energy          :     0.050384198398
   Maximum Energy change  :     0.005354212260 (vector 1)
   Maximum residual norm  :     0.001311106376

                       ****Iteration    4****
   Time for densities:     0.020
   Time for XC-Integration:     4.024
   Time for K (COSX):    60.980
   Time for Sigma-Completion:     0.033
   Lowest Energy          :     0.050378442014
   Maximum Energy change  :     0.004195894532 (vector 1)
   Maximum residual norm  :     0.000121119440

                       ****Iteration    5****
   Time for densities:     0.023
   Time for XC-Integration:     4.058
   Time for K (COSX):    61.060
   Time for Sigma-Completion:     0.069
   Lowest Energy          :     0.050378032358
   Maximum Energy change  :     0.000665793586 (vector 2)
   Maximum residual norm  :     0.000553856938

                       ****Iteration    6****
   Time for densities:     0.025
   Time for XC-Integration:     4.058
   Time for K (COSX):    61.153
   Time for Sigma-Completion:     0.028
   Lowest Energy          :     0.050378007972
   Maximum Energy change  :     0.002544012327 (vector 2)
   Maximum residual norm  :     0.000108386958

                       ****Iteration    7****
   Time for densities:     0.020
   Time for XC-Integration:     2.844
   Time for K (COSX):    60.278
   Time for Sigma-Completion:     0.020
   Lowest Energy          :     0.050378007158
   Maximum Energy change  :     0.000220864913 (vector 2)
   Maximum residual norm  :     0.000006603425

      *** CONVERGENCE OF RESIDUAL NORM REACHED ***

----------------------------- 
SCF STABILITY ANALYSIS RESULT 
----------------------------- 

RHF/RKS->UHF/UKS - triplet - external

   Root    Eigenvalue (au) 
     0       0.050378 
     1       0.102509 
     2       0.108957 

Stability Analysis indicates a stable HF/KS wave function.


Total time for performing the stability analysis:   525.256sec

Old exchange energy                            =    -20.735207924 Eh
New exchange energy                            =    -20.735217850 Eh
Exchange energy change after final integration =     -0.000009926 Eh
Total energy after final integration           =   -732.209792780 Eh
Final COS-X integration done in                =    17.045 sec

----------------
TOTAL SCF ENERGY
----------------

Total Energy       :         -732.20979278 Eh          -19924.44140 eV

Components:
Nuclear Repulsion  :         1294.66952703 Eh           35229.74888 eV
Electronic Energy  :        -2026.87931981 Eh          -55154.19028 eV
One Electron Energy:        -3559.30652966 Eh          -96853.65462 eV
Two Electron Energy:         1532.42720985 Eh           41699.46434 eV
Max COSX asymmetry :            0.00019876 Eh               0.00541 eV

Virial components:
Potential Energy   :        -1461.57213312 Eh          -39771.39968 eV
Kinetic Energy     :          729.36234034 Eh           19846.95828 eV
Virial Ratio       :            2.00390403


DFT components:
N(Alpha)           :       63.999968892115 electrons
N(Beta)            :       63.999968892115 electrons
N(Total)           :      127.999937784231 electrons
E(X)               :      -82.331651975907 Eh       
E(C)               :       -5.081707863324 Eh       
E(XC)              :      -87.413359839231 Eh       
DFET-embed. en.    :        0.000000000000 Eh       

---------------
SCF CONVERGENCE
---------------

  Last Energy change         ...    4.9116e-09  Tolerance :   1.0000e-06
  Last Orbital Gradient      ...    3.5804e-06  Tolerance :   5.0000e-05
  Last Orbital Rotation      ...    5.6019e-05

             **** THE GBW FILE WAS UPDATED (78Dihydro9Hcyclopentaapyrene_spectra.gbw) ****
             **** DENSITY 78Dihydro9Hcyclopentaapyrene_spectra.scfp WAS UPDATED ****
             **** ENERGY FILE WAS UPDATED (78Dihydro9Hcyclopentaapyrene_spectra.en.tmp) ****
             **** THE GBW FILE WAS UPDATED (78Dihydro9Hcyclopentaapyrene_spectra.gbw) ****
             **** DENSITY 78Dihydro9Hcyclopentaapyrene_spectra.scfp WAS UPDATED ****
----------------
ORBITAL ENERGIES
----------------

  NO   OCC          E(Eh)            E(eV) 
   0   2.0000     -10.183126      -277.0970 
   1   2.0000     -10.182768      -277.0872 
   2   2.0000     -10.182445      -277.0784 
   3   2.0000     -10.182239      -277.0728 
   4   2.0000     -10.182012      -277.0666 
   5   2.0000     -10.181513      -277.0530 
   6   2.0000     -10.176005      -276.9032 
   7   2.0000     -10.175348      -276.8853 
   8   2.0000     -10.175066      -276.8776 
   9   2.0000     -10.174805      -276.8705 
  10   2.0000     -10.174673      -276.8669 
  11   2.0000     -10.174111      -276.8516 
  12   2.0000     -10.173672      -276.8397 
  13   2.0000     -10.173547      -276.8363 
  14   2.0000     -10.173295      -276.8294 
  15   2.0000     -10.173266      -276.8287 
  16   2.0000     -10.172271      -276.8016 
  17   2.0000     -10.171963      -276.7932 
  18   2.0000     -10.170306      -276.7481 
  19   2.0000      -0.895640       -24.3716 
  20   2.0000      -0.865754       -23.5584 
  21   2.0000      -0.833261       -22.6742 
  22   2.0000      -0.825161       -22.4538 
  23   2.0000      -0.781257       -21.2591 
  24   2.0000      -0.764858       -20.8128 
  25   2.0000      -0.747470       -20.3397 
  26   2.0000      -0.730760       -19.8850 
  27   2.0000      -0.708437       -19.2776 
  28   2.0000      -0.688651       -18.7392 
  29   2.0000      -0.630454       -17.1555 
  30   2.0000      -0.626250       -17.0411 
  31   2.0000      -0.616294       -16.7702 
  32   2.0000      -0.604577       -16.4514 
  33   2.0000      -0.579129       -15.7589 
  34   2.0000      -0.533827       -14.5262 
  35   2.0000      -0.519291       -14.1306 
  36   2.0000      -0.516490       -14.0544 
  37   2.0000      -0.509614       -13.8673 
  38   2.0000      -0.486591       -13.2408 
  39   2.0000      -0.475707       -12.9446 
  40   2.0000      -0.466930       -12.7058 
  41   2.0000      -0.445290       -12.1170 
  42   2.0000      -0.432635       -11.7726 
  43   2.0000      -0.431249       -11.7349 
  44   2.0000      -0.414976       -11.2921 
  45   2.0000      -0.412070       -11.2130 
  46   2.0000      -0.407479       -11.0881 
  47   2.0000      -0.401012       -10.9121 
  48   2.0000      -0.397187       -10.8080 
  49   2.0000      -0.388477       -10.5710 
  50   2.0000      -0.370400       -10.0791 
  51   2.0000      -0.368019       -10.0143 
  52   2.0000      -0.360735        -9.8161 
  53   2.0000      -0.348458        -9.4820 
  54   2.0000      -0.347138        -9.4461 
  55   2.0000      -0.344679        -9.3792 
  56   2.0000      -0.336923        -9.1681 
  57   2.0000      -0.329542        -8.9673 
  58   2.0000      -0.317674        -8.6443 
  59   2.0000      -0.289525        -7.8784 
  60   2.0000      -0.272411        -7.4127 
  61   2.0000      -0.257406        -7.0044 
  62   2.0000      -0.227291        -6.1849 
  63   2.0000      -0.198915        -5.4127 
  64   0.0000      -0.061762        -1.6806 
  65   0.0000      -0.029591        -0.8052 
  66   0.0000      -0.013895        -0.3781 
  67   0.0000      -0.000000        -0.0000 
  68   0.0000       0.000000         0.0000 
  69   0.0000       0.003983         0.1084 
  70   0.0000       0.005334         0.1451 
  71   0.0000       0.010172         0.2768 
  72   0.0000       0.012387         0.3371 
  73   0.0000       0.022898         0.6231 
  74   0.0000       0.025221         0.6863 
  75   0.0000       0.032991         0.8977 
  76   0.0000       0.038212         1.0398 
  77   0.0000       0.041530         1.1301 
  78   0.0000       0.042685         1.1615 
  79   0.0000       0.044425         1.2089 
  80   0.0000       0.053856         1.4655 
  81   0.0000       0.058266         1.5855 
  82   0.0000       0.063140         1.7181 
  83   0.0000       0.063858         1.7377 
  84   0.0000       0.066927         1.8212 
  85   0.0000       0.071968         1.9584 
  86   0.0000       0.079012         2.1500 
  87   0.0000       0.083568         2.2740 
  88   0.0000       0.090453         2.4613 
  89   0.0000       0.090639         2.4664 
  90   0.0000       0.094159         2.5622 
  91   0.0000       0.097176         2.6443 
  92   0.0000       0.100045         2.7224 
  93   0.0000       0.109235         2.9724 
  94   0.0000       0.109902         2.9906 
  95   0.0000       0.118241         3.2175 
  96   0.0000       0.125373         3.4116 
  97   0.0000       0.128531         3.4975 
  98   0.0000       0.133662         3.6371 
  99   0.0000       0.135334         3.6826 
 100   0.0000       0.140249         3.8164 
 101   0.0000       0.142350         3.8735 
 102   0.0000       0.144597         3.9347 
 103   0.0000       0.148414         4.0385 
 104   0.0000       0.151081         4.1111 
 105   0.0000       0.155115         4.2209 
 106   0.0000       0.159066         4.3284 
 107   0.0000       0.159491         4.3400 
 108   0.0000       0.164277         4.4702 
 109   0.0000       0.167417         4.5557 
 110   0.0000       0.170648         4.6436 
 111   0.0000       0.174423         4.7463 
 112   0.0000       0.179517         4.8849 
 113   0.0000       0.180619         4.9149 
 114   0.0000       0.181548         4.9402 
 115   0.0000       0.184704         5.0261 
 116   0.0000       0.186256         5.0683 
 117   0.0000       0.188413         5.1270 
 118   0.0000       0.194097         5.2817 
 119   0.0000       0.197033         5.3615 
 120   0.0000       0.201260         5.4766 
 121   0.0000       0.202456         5.5091 
 122   0.0000       0.208142         5.6638 
 123   0.0000       0.215198         5.8558 
 124   0.0000       0.215878         5.8743 
 125   0.0000       0.218433         5.9439 
 126   0.0000       0.220070         5.9884 
 127   0.0000       0.223176         6.0729 
 128   0.0000       0.227530         6.1914 
 129   0.0000       0.230557         6.2738 
 130   0.0000       0.236375         6.4321 
 131   0.0000       0.238082         6.4785 
 132   0.0000       0.242505         6.5989 
 133   0.0000       0.244911         6.6644 
 134   0.0000       0.246678         6.7124 
 135   0.0000       0.251286         6.8378 
 136   0.0000       0.253114         6.8876 
 137   0.0000       0.255941         6.9645 
 138   0.0000       0.258862         7.0440 
 139   0.0000       0.264790         7.2053 
 140   0.0000       0.268887         7.3168 
 141   0.0000       0.270753         7.3676 
 142   0.0000       0.274040         7.4570 
 143   0.0000       0.277305         7.5459 
 144   0.0000       0.280940         7.6448 
 145   0.0000       0.286263         7.7896 
 146   0.0000       0.288230         7.8431 
 147   0.0000       0.289565         7.8795 
 148   0.0000       0.292833         7.9684 
 149   0.0000       0.297358         8.0915 
 150   0.0000       0.300981         8.1901 
 151   0.0000       0.304773         8.2933 
 152   0.0000       0.307763         8.3747 
 153   0.0000       0.308624         8.3981 
 154   0.0000       0.315057         8.5731 
 155   0.0000       0.315273         8.5790 
 156   0.0000       0.325491         8.8571 
 157   0.0000       0.334666         9.1067 
 158   0.0000       0.339339         9.2339 
 159   0.0000       0.346985         9.4420 
 160   0.0000       0.351403         9.5622 
 161   0.0000       0.354257         9.6398 
 162   0.0000       0.360826         9.8186 
 163   0.0000       0.364809         9.9270 
 164   0.0000       0.373788        10.1713 
 165   0.0000       0.375536        10.2189 
 166   0.0000       0.388106        10.5609 
 167   0.0000       0.398497        10.8437 
 168   0.0000       0.403996        10.9933 
 169   0.0000       0.412479        11.2241 
 170   0.0000       0.422218        11.4891 
 171   0.0000       0.423638        11.5278 
 172   0.0000       0.433962        11.8087 
 173   0.0000       0.437883        11.9154 
 174   0.0000       0.444347        12.0913 
 175   0.0000       0.456048        12.4097 
 176   0.0000       0.463533        12.6134 
 177   0.0000       0.478019        13.0076 
 178   0.0000       0.485610        13.2141 
 179   0.0000       0.492278        13.3956 
 180   0.0000       0.497420        13.5355 
 181   0.0000       0.509766        13.8714 
 182   0.0000       0.514955        14.0126 
 183   0.0000       0.521906        14.2018 
 184   0.0000       0.526602        14.3296 
 185   0.0000       0.533240        14.5102 
 186   0.0000       0.535999        14.5853 
 187   0.0000       0.538323        14.6485 
 188   0.0000       0.548708        14.9311 
 189   0.0000       0.556632        15.1467 
 190   0.0000       0.560711        15.2577 
 191   0.0000       0.564783        15.3685 
 192   0.0000       0.568106        15.4590 
 193   0.0000       0.574310        15.6278 
 194   0.0000       0.577004        15.7011 
 195   0.0000       0.579514        15.7694 
 196   0.0000       0.592280        16.1167 
 197   0.0000       0.596892        16.2423 
 198   0.0000       0.600572        16.3424 
 199   0.0000       0.602250        16.3881 
 200   0.0000       0.607535        16.5319 
 201   0.0000       0.611012        16.6265 
 202   0.0000       0.620878        16.8950 
 203   0.0000       0.626726        17.0541 
 204   0.0000       0.633283        17.2325 
 205   0.0000       0.636129        17.3100 
 206   0.0000       0.644767        17.5450 
 207   0.0000       0.650408        17.6985 
 208   0.0000       0.650779        17.7086 
 209   0.0000       0.658018        17.9056 
 210   0.0000       0.661164        17.9912 
 211   0.0000       0.663054        18.0426 
 212   0.0000       0.667153        18.1542 
 213   0.0000       0.675405        18.3787 
 214   0.0000       0.683471        18.5982 
 215   0.0000       0.692565        18.8456 
 216   0.0000       0.693275        18.8650 
 217   0.0000       0.698281        19.0012 
 218   0.0000       0.716725        19.5031 
 219   0.0000       0.719163        19.5694 
 220   0.0000       0.723693        19.6927 
 221   0.0000       0.726461        19.7680 
 222   0.0000       0.727568        19.7981 
 223   0.0000       0.733378        19.9562 
 224   0.0000       0.735337        20.0095 
 225   0.0000       0.742409        20.2020 
 226   0.0000       0.746290        20.3076 
 227   0.0000       0.748987        20.3810 
 228   0.0000       0.753861        20.5136 
 229   0.0000       0.762875        20.7589 
 230   0.0000       0.768057        20.8999 
 231   0.0000       0.770619        20.9696 
 232   0.0000       0.786091        21.3906 
 233   0.0000       0.792090        21.5539 
 234   0.0000       0.796374        21.6704 
 235   0.0000       0.804916        21.9029 
 236   0.0000       0.817173        22.2364 
 237   0.0000       0.824794        22.4438 
 238   0.0000       0.854712        23.2579 
 239   0.0000       0.861725        23.4487 
 240   0.0000       0.889590        24.2070 
 241   0.0000       0.899498        24.4766 
 242   0.0000       0.905333        24.6354 
 243   0.0000       0.919886        25.0314 
 244   0.0000       0.924198        25.1487 
 245   0.0000       0.934904        25.4400 
 246   0.0000       0.938842        25.5472 
 247   0.0000       0.948773        25.8174 
 248   0.0000       0.952288        25.9131 
 249   0.0000       0.953765        25.9533 
 250   0.0000       0.957918        26.0663 
 251   0.0000       0.961815        26.1723 
 252   0.0000       0.966720        26.3058 
 253   0.0000       0.979308        26.6483 
 254   0.0000       0.982541        26.7363 
 255   0.0000       0.992254        27.0006 
 256   0.0000       0.998510        27.1708 
 257   0.0000       1.005612        27.3641 
 258   0.0000       1.013721        27.5847 
 259   0.0000       1.015291        27.6275 
 260   0.0000       1.033047        28.1106 
 261   0.0000       1.034960        28.1627 
 262   0.0000       1.041949        28.3529 
 263   0.0000       1.048727        28.5373 
 264   0.0000       1.055039        28.7091 
 265   0.0000       1.067961        29.0607 
 266   0.0000       1.082783        29.4640 
 267   0.0000       1.087990        29.6057 
 268   0.0000       1.096935        29.8491 
 269   0.0000       1.109496        30.1909 
 270   0.0000       1.117873        30.4189 
 271   0.0000       1.121009        30.5042 
 272   0.0000       1.129667        30.7398 
 273   0.0000       1.147880        31.2354 
 274   0.0000       1.150180        31.2980 
 275   0.0000       1.159899        31.5625 
 276   0.0000       1.161910        31.6172 
 277   0.0000       1.182835        32.1866 
 278   0.0000       1.210312        32.9343 
 279   0.0000       1.228708        33.4348 
 280   0.0000       1.238369        33.6977 
 281   0.0000       1.251657        34.0593 
 282   0.0000       1.269002        34.5313 
 283   0.0000       1.296390        35.2766 
 284   0.0000       1.342532        36.5321 
 285   0.0000       1.351866        36.7862 
 286   0.0000       1.367718        37.2175 
 287   0.0000       1.377066        37.4719 
 288   0.0000       1.403887        38.2017 
 289   0.0000       1.416021        38.5319 
 290   0.0000       1.422518        38.7087 
 291   0.0000       1.452661        39.5289 
 292   0.0000       1.462388        39.7936 
 293   0.0000       1.468727        39.9661 
 294   0.0000       1.471422        40.0394 
 295   0.0000       1.488285        40.4983 
 296   0.0000       1.492001        40.5994 
 297   0.0000       1.499360        40.7997 
 298   0.0000       1.504838        40.9487 
 299   0.0000       1.509994        41.0890 
 300   0.0000       1.519095        41.3367 
 301   0.0000       1.520578        41.3770 
 302   0.0000       1.527811        41.5738 
 303   0.0000       1.540391        41.9162 
 304   0.0000       1.554344        42.2959 
 305   0.0000       1.560143        42.4536 
 306   0.0000       1.565235        42.5922 
 307   0.0000       1.576861        42.9086 
 308   0.0000       1.578714        42.9590 
 309   0.0000       1.584584        43.1187 
 310   0.0000       1.590036        43.2671 
 311   0.0000       1.607988        43.7556 
 312   0.0000       1.613165        43.8964 
 313   0.0000       1.621968        44.1360 
 314   0.0000       1.633317        44.4448 
 315   0.0000       1.641467        44.6666 
 316   0.0000       1.656110        45.0650 
 317   0.0000       1.660898        45.1953 
 318   0.0000       1.668741        45.4088 
 319   0.0000       1.686727        45.8982 
 320   0.0000       1.708068        46.4789 
 321   0.0000       1.711466        46.5714 
 322   0.0000       1.719246        46.7831 
 323   0.0000       1.731264        47.1101 
 324   0.0000       1.742400        47.4131 
 325   0.0000       1.746304        47.5194 
 326   0.0000       1.753076        47.7036 
 327   0.0000       1.765933        48.0535 
 328   0.0000       1.769814        48.1591 
 329   0.0000       1.778587        48.3978 
 330   0.0000       1.789824        48.7036 
 331   0.0000       1.799463        48.9659 
 332   0.0000       1.808553        49.2132 
 333   0.0000       1.831656        49.8419 
 334   0.0000       1.834888        49.9298 
 335   0.0000       1.842891        50.1476 
 336   0.0000       1.870581        50.9011 
 337   0.0000       1.877578        51.0915 
 338   0.0000       1.892387        51.4945 
 339   0.0000       1.898687        51.6659 
 340   0.0000       1.903900        51.8077 
 341   0.0000       1.907150        51.8962 
 342   0.0000       1.911217        52.0069 
 343   0.0000       1.923005        52.3276 
 344   0.0000       1.931710        52.5645 
 345   0.0000       1.943082        52.8739 
 346   0.0000       1.950161        53.0666 
 347   0.0000       1.952375        53.1268 
 348   0.0000       1.958781        53.3011 
 349   0.0000       1.968458        53.5645 
 350   0.0000       1.970062        53.6081 
 351   0.0000       1.983286        53.9680 
 352   0.0000       2.005709        54.5781 
 353   0.0000       2.017366        54.8953 
 354   0.0000       2.036895        55.4267 
 355   0.0000       2.046814        55.6966 
 356   0.0000       2.051061        55.8122 
 357   0.0000       2.073381        56.4196 
 358   0.0000       2.076628        56.5079 
 359   0.0000       2.081192        56.6321 
 360   0.0000       2.095958        57.0339 
 361   0.0000       2.106798        57.3289 
 362   0.0000       2.121109        57.7183 
 363   0.0000       2.137072        58.1527 
 364   0.0000       2.152539        58.5736 
 365   0.0000       2.160221        58.7826 
 366   0.0000       2.170007        59.0489 
 367   0.0000       2.193739        59.6947 
 368   0.0000       2.200907        59.8897 
 369   0.0000       2.217271        60.3350 
 370   0.0000       2.228423        60.6385 
 371   0.0000       2.239277        60.9338 
 372   0.0000       2.247418        61.1554 
 373   0.0000       2.249942        61.2240 
 374   0.0000       2.269126        61.7461 
 375   0.0000       2.293549        62.4107 
 376   0.0000       2.325546        63.2813 
 377   0.0000       2.332058        63.4585 
 378   0.0000       2.350339        63.9560 
 379   0.0000       2.367462        64.4219 
 380   0.0000       2.388444        64.9929 
 381   0.0000       2.403773        65.4100 
 382   0.0000       2.421226        65.8849 
 383   0.0000       2.444740        66.5247 
 384   0.0000       2.458814        66.9077 
 385   0.0000       2.474405        67.3320 
 386   0.0000       2.483027        67.5666 
 387   0.0000       2.492941        67.8364 
 388   0.0000       2.495361        67.9022 
 389   0.0000       2.526785        68.7573 
 390   0.0000       2.550150        69.3931 
 391   0.0000       2.557017        69.5800 
 392   0.0000       2.574194        70.0474 
 393   0.0000       2.590550        70.4924 
 394   0.0000       2.598086        70.6975 
 395   0.0000       2.631886        71.6173 
 396   0.0000       2.638260        71.7907 
 397   0.0000       2.646341        72.0106 
 398   0.0000       2.667593        72.5889 
 399   0.0000       2.686400        73.1007 
 400   0.0000       2.696702        73.3810 
 401   0.0000       2.706324        73.6428 
 402   0.0000       2.716967        73.9324 
 403   0.0000       2.725739        74.1711 
 404   0.0000       2.732771        74.3625 
 405   0.0000       2.743630        74.6580 
 406   0.0000       2.745981        74.7219 
 407   0.0000       2.754511        74.9541 
 408   0.0000       2.760033        75.1043 
 409   0.0000       2.766218        75.2726 
 410   0.0000       2.776618        75.5556 
 411   0.0000       2.782877        75.7259 
 412   0.0000       2.787914        75.8630 
 413   0.0000       2.791483        75.9601 
 414   0.0000       2.798591        76.1535 
 415   0.0000       2.801435        76.2309 
 416   0.0000       2.813133        76.5492 
 417   0.0000       2.818772        76.7027 
 418   0.0000       2.836144        77.1754 
 419   0.0000       2.843959        77.3881 
 420   0.0000       2.856051        77.7171 
 421   0.0000       2.859162        77.8018 
 422   0.0000       2.872270        78.1585 
 423   0.0000       2.878998        78.3415 
 424   0.0000       2.879757        78.3622 
 425   0.0000       2.895141        78.7808 
 426   0.0000       2.911738        79.2324 
 427   0.0000       2.919563        79.4453 
 428   0.0000       2.927613        79.6644 
 429   0.0000       2.947156        80.1962 
 430   0.0000       2.948798        80.2409 
 431   0.0000       2.969785        80.8120 
 432   0.0000       2.985606        81.2425 
 433   0.0000       2.994219        81.4769 
 434   0.0000       3.069005        83.5119 
 435   0.0000       3.074492        83.6612 
 436   0.0000       3.094664        84.2101 
 437   0.0000       3.122077        84.9560 
 438   0.0000       3.158375        85.9437 
 439   0.0000       3.166585        86.1671 
 440   0.0000       3.226489        87.7972 
 441   0.0000       3.227229        87.8174 
 442   0.0000       3.235307        88.0372 
 443   0.0000       3.266208        88.8780 
 444   0.0000       3.273487        89.0761 
 445   0.0000       3.300919        89.8226 
 446   0.0000       3.325621        90.4947 
 447   0.0000       3.373843        91.8069 
 448   0.0000       3.412144        92.8492 
 449   0.0000       3.420125        93.0663 
 450   0.0000       3.441650        93.6521 
 451   0.0000       3.465808        94.3094 
 452   0.0000       3.479401        94.6793 
 453   0.0000       3.500106        95.2427 
 454   0.0000       3.526183        95.9523 
 455   0.0000       3.535975        96.2188 
 456   0.0000       3.571863        97.1953 
 457   0.0000       3.573308        97.2346 
 458   0.0000       3.629901        98.7746 
 459   0.0000       3.636166        98.9451 
 460   0.0000       3.647660        99.2579 
 461   0.0000       3.670452        99.8781 
 462   0.0000       3.748929       102.0135 
 463   0.0000       3.798904       103.3734 
 464   0.0000       3.813164       103.7615 
 465   0.0000       3.852365       104.8282 
 466   0.0000       3.930374       106.9509 
 467   0.0000       3.956206       107.6538 
 468   0.0000       4.059858       110.4743 
 469   0.0000       4.105636       111.7200 
 470   0.0000       4.116106       112.0050 
 471   0.0000       4.130195       112.3883 
 472   0.0000       4.159360       113.1819 
 473   0.0000       4.217909       114.7751 
 474   0.0000       4.275622       116.3456 
 475   0.0000       4.333712       117.9263 
 476   0.0000       4.356226       118.5389 
 477   0.0000       4.427821       120.4871 
 478   0.0000       4.568168       124.3062 
 479   0.0000       4.843033       131.7856 
 480   0.0000       4.854970       132.1104 
 481   0.0000       4.859399       132.2310 
 482   0.0000       4.893130       133.1488 
 483   0.0000      23.456730       638.2901 
 484   0.0000      23.728417       645.6831 
 485   0.0000      23.813974       648.0112 
 486   0.0000      23.859754       649.2569 
 487   0.0000      23.884681       649.9352 
 488   0.0000      23.918039       650.8429 
 489   0.0000      23.939860       651.4367 
 490   0.0000      23.949110       651.6884 
 491   0.0000      23.970722       652.2765 
 492   0.0000      23.977285       652.4551 
 493   0.0000      24.009477       653.3311 
 494   0.0000      24.028103       653.8379 
 495   0.0000      24.053162       654.5198 
 496   0.0000      24.075007       655.1142 
 497   0.0000      24.092372       655.5868 
 498   0.0000      24.173420       657.7922 
 499   0.0000      24.185567       658.1227 
 500   0.0000      24.216596       658.9671 
 501   0.0000      24.224595       659.1847 

                    ********************************
                    * MULLIKEN POPULATION ANALYSIS *
                    ********************************

-----------------------
MULLIKEN ATOMIC CHARGES
-----------------------
   0 C :   -0.402497
   1 C :   -0.158292
   2 C :   -0.366803
   3 C :    1.484588
   4 C :   -0.214543
   5 C :   -0.218873
   6 C :    1.385268
   7 C :   -0.802025
   8 C :   -0.260955
   9 C :   -1.535305
  10 C :    2.539021
  11 C :   -1.105258
  12 C :   -0.682379
  13 C :    1.543618
  14 C :   -2.151708
  15 C :   -0.747332
  16 C :    0.134594
  17 C :   -0.452612
  18 C :    0.056123
  19 H :    0.121325
  20 H :    0.124910
  21 H :    0.120939
  22 H :    0.120690
  23 H :    0.117305
  24 H :    0.115889
  25 H :    0.125849
  26 H :    0.119077
  27 H :    0.158194
  28 H :    0.179290
  29 H :    0.166359
  30 H :    0.151074
  31 H :    0.174317
  32 H :    0.160154
Sum of atomic charges:   -0.0000000

--------------------------------
MULLIKEN REDUCED ORBITAL CHARGES
--------------------------------
  0 C s       :     3.443707  s :     3.443707
      pz      :     1.019678  p :     2.900676
      px      :     0.946821
      py      :     0.934177
      dz2     :     0.003945  d :     0.058115
      dxz     :     0.010041
      dyz     :     0.004444
      dx2y2   :     0.021445
      dxy     :     0.018238
  1 C s       :     3.280963  s :     3.280963
      pz      :     0.977843  p :     2.817878
      px      :     0.949190
      py      :     0.890845
      dz2     :     0.003856  d :     0.059451
      dxz     :     0.003830
      dyz     :     0.011431
      dx2y2   :     0.022297
      dxy     :     0.018038
  2 C s       :     3.466153  s :     3.466153
      pz      :     1.017470  p :     2.842517
      px      :     0.935922
      py      :     0.889124
      dz2     :     0.003937  d :     0.058133
      dxz     :     0.007309
      dyz     :     0.007188
      dx2y2   :     0.017120
      dxy     :     0.022579
  3 C s       :     1.376508  s :     1.376508
      pz      :     0.919065  p :     3.064437
      px      :     1.192318
      py      :     0.953055
      dz2     :     0.004374  d :     0.074467
      dxz     :     0.011401
      dyz     :     0.010154
      dx2y2   :     0.023106
      dxy     :     0.025431
  4 C s       :     3.506999  s :     3.506999
      pz      :     1.009592  p :     2.649064
      px      :     0.769800
      py      :     0.869672
      dz2     :     0.003919  d :     0.058480
      dxz     :     0.009100
      dyz     :     0.005865
      dx2y2   :     0.016345
      dxy     :     0.023251
  5 C s       :     3.305339  s :     3.305339
      pz      :     1.005682  p :     2.854829
      px      :     0.857856
      py      :     0.991291
      dz2     :     0.003931  d :     0.058705
      dxz     :     0.011636
      dyz     :     0.003536
      dx2y2   :     0.018730
      dxy     :     0.020873
  6 C s       :     0.863970  s :     0.863970
      pz      :     0.917203  p :     3.676305
      px      :     0.885941
      py      :     1.873161
      dz2     :     0.004388  d :     0.074457
      dxz     :     0.012248
      dyz     :     0.009535
[...]
 762   97872.7    102.2      4.57898   0.06875  -0.12904  -0.02071
 763   97907.0    102.1     11.60728   0.03709  -0.04160  -0.17993
 764   97937.6    102.1     -2.54871  -0.07656   0.06675  -0.10343
 765   97988.3    102.1     -0.82468   0.05947   0.09634  -0.04485
 766   98006.8    102.0     -7.23745   0.07951  -0.20374  -0.00466
 767   98052.4    102.0      2.52843  -0.11979   0.10456  -0.11523
 768   98089.6    101.9     -3.53981   0.02712   0.07879   0.11610
 769   98177.6    101.9     -3.59819   0.05634   0.03137   0.27533
 770   98235.1    101.8      0.15965  -0.09107   0.01348  -0.01021
 771   98247.2    101.8     -1.48061  -0.04215  -0.00370   0.17301
 772   98275.2    101.8     -2.18647   0.08533   0.03006   0.10439
 773   98288.2    101.7      1.20693  -0.04935  -0.05469   0.00852
 774   98316.6    101.7     -1.61249   0.00071  -0.07976  -0.07326
 775   98368.6    101.7     -1.47313  -0.04274   0.04122   0.08597
 776   98409.4    101.6      3.68326   0.17180  -0.04722   0.05090
 777   98434.7    101.6      0.92502   0.03191   0.00634   0.06889
 778   98461.7    101.6      6.00084  -0.10796  -0.16174   0.33352
 779   98468.4    101.6     -5.79898  -0.00079   0.20023   0.07573
 780   98496.5    101.5      2.17786  -0.04164   0.00381   0.06817
 781   98533.2    101.5      9.60703  -0.00749  -0.09303   0.16830
 782   98553.0    101.5     -4.92092  -0.04337  -0.16780   0.06521
 783   98578.6    101.4      6.46445   0.21471  -0.02373   0.26634
 784   98610.6    101.4    -10.68899  -0.17597   0.01093   0.15198
 785   98629.0    101.4      0.88372   0.12367  -0.02315  -0.01983
 786   98667.7    101.4    -14.81317   0.07245  -0.14813  -0.12695
 787   98706.6    101.3      1.60224  -0.04292   0.19874   0.00358
 788   98736.4    101.3      3.54468   0.08601   0.09450  -0.12152
 789   98762.2    101.3     -1.91503  -0.04148   0.11961   0.01201
 790   98811.1    101.2    -10.18073   0.09168  -0.25325  -0.04058
 791   98852.8    101.2     -1.35553   0.03440  -0.16005  -0.30054
 792   98861.6    101.2     -1.11627   0.10576   0.07561  -0.04601
 793   98906.3    101.1     10.75837   0.01338   0.17321  -0.02685
 794   98916.8    101.1      7.33796   0.03915  -0.13765   0.02716
 795   98953.9    101.1     -3.35212  -0.01815  -0.05191  -0.00087
 796   98987.2    101.0     -8.44900   0.06152   0.05228   0.16149
 797   99041.5    101.0     -4.49348  -0.00972  -0.09444  -0.22830
 798   99077.7    100.9      5.21742   0.00084  -0.15799   0.04289
 799   99091.8    100.9      0.99460  -0.10681   0.04910  -0.00090
 800   99136.3    100.9     -0.38738   0.01717   0.14568  -0.07243
 801   99157.2    100.8      9.50231  -0.12048   0.13515  -0.17446
 802   99217.4    100.8     -5.99732   0.08021   0.02956   0.19672
 803   99278.8    100.7      1.74820  -0.12125  -0.01617   0.01946
 804   99308.9    100.7     -8.03287   0.15819   0.01793   0.03088
 805   99349.8    100.7      1.27305   0.01896   0.02068  -0.05170
 806   99396.5    100.6     -0.05557  -0.00765  -0.06498  -0.07795
 807   99445.5    100.6      0.01124  -0.05826  -0.05518  -0.15080
 808   99470.2    100.5      1.11748  -0.05759   0.16999  -0.20893
 809   99491.9    100.5      4.06999   0.07017  -0.13634  -0.19263
 810   99545.3    100.5     -1.06879  -0.10447  -0.19031  -0.02239
 811   99559.7    100.4      2.26561  -0.11374   0.07841   0.11223
 812   99622.3    100.4     -0.22614   0.10082   0.14573  -0.19669
 813   99662.7    100.3    -10.12794  -0.12553  -0.12925   0.00702
 814   99685.8    100.3      4.14993   0.08621  -0.03947   0.07808
 815   99715.0    100.3     -6.29432  -0.08764   0.15085  -0.00299
 816   99728.1    100.3    -10.78082  -0.20629   0.31354   0.01081
 817   99757.0    100.2     -0.53106  -0.00619  -0.13473  -0.17956
 818   99801.0    100.2     -7.49299   0.00975  -0.06772  -0.29854
 819   99861.5    100.1      6.91552   0.02910  -0.19203   0.05384
 820   99878.5    100.1     -8.79926  -0.06287   0.09615   0.14514
 821   99913.3    100.1     -1.47426  -0.12130  -0.04331  -0.01886
 822   99944.8    100.1      3.84030   0.14829   0.05829  -0.00112
 823   99961.4    100.0     -4.30753  -0.05621   0.03810  -0.07817
 824   99994.0    100.0     -8.43191  -0.01999   0.22197   0.08986
 825  100074.9     99.9     -1.54813  -0.02717  -0.07773  -0.17755
 826  100108.3     99.9      2.15211  -0.01566  -0.02788  -0.29281
 827  100117.9     99.9    -10.93765  -0.08956   0.00962  -0.39061
 828  100174.6     99.8     20.00815   0.00390  -0.23645   0.10117
 829  100194.0     99.8     -3.26173   0.11548  -0.06147  -0.24944
 830  100224.5     99.8     -2.41822  -0.07362   0.09884  -0.01024
 831  100251.6     99.7    -20.60860  -0.07926   0.19204   0.35820
 832  100276.8     99.7     -0.79387   0.01793  -0.04691  -0.07948
 833  100281.4     99.7     13.97408  -0.17925  -0.06086   0.03676
 834  100307.4     99.7      2.68309   0.02551   0.07829  -0.13326
 835  100340.5     99.7    -15.80250   0.20393   0.03966  -0.07265
 836  100351.8     99.6     -4.07197  -0.11247   0.08945  -0.10715
 837  100377.3     99.6     -3.11494  -0.09420  -0.00639  -0.14236
 838  100400.5     99.6      1.78939   0.17732   0.01981   0.31754
 839  100448.7     99.6     -5.40904   0.05130  -0.12458  -0.06768
 840  100462.3     99.5      5.99540   0.05822   0.18114   0.05166
 841  100501.7     99.5      3.79998   0.03823   0.04868   0.17458
 842  100561.8     99.4     -4.31424   0.01844  -0.05440  -0.12567
 843  100578.8     99.4     -1.96132  -0.19814   0.04166  -0.10761
 844  100607.0     99.4     -0.38202  -0.03223  -0.18021  -0.02665
 845  100623.4     99.4     -1.18190   0.16491  -0.00487  -0.03850
 846  100666.3     99.3      6.00763   0.12512  -0.15382  -0.07744
 847  100690.3     99.3     -0.27351  -0.00443   0.07950   0.19170
 848  100728.4     99.3     -5.94220  -0.19840  -0.08322   0.09407
 849  100761.1     99.2     -0.38025   0.00211  -0.03548  -0.15038
 850  100777.3     99.2     -2.64234   0.15040  -0.13587   0.14937
 851  100781.5     99.2     -2.76729  -0.03131  -0.17590   0.03276
 852  100848.0     99.2      8.43646  -0.13955   0.03157  -0.22152
 853  100868.4     99.1     -8.11818   0.10266  -0.08475   0.24651
 854  100919.6     99.1     -2.33036   0.02522   0.00033   0.37302
 855  100939.6     99.1      7.62558  -0.07916  -0.13766   0.32965
 856  100954.1     99.1     -4.47942  -0.05517   0.01333  -0.23348
 857  100994.7     99.0      1.77324   0.06708  -0.05703   0.05213
 858  101007.9     99.0      8.02256   0.14989   0.02864  -0.20611
 859  101044.3     99.0      6.31916  -0.26527   0.17709   0.11315
 860  101066.6     98.9      0.53248  -0.00988  -0.08185  -0.04495
 861  101097.7     98.9      3.76771  -0.12453   0.10871   0.14454
 862  101120.2     98.9      8.02587   0.24397  -0.06573   0.04905
 863  101147.6     98.9     -1.61566   0.01340   0.06530   0.01368
 864  101194.1     98.8      0.14023  -0.00976  -0.00851   0.01968
 865  101218.6     98.8     -0.35730   0.07505  -0.07361   0.07895
 866  101254.7     98.8      0.37400  -0.00430  -0.06100  -0.25268
 867  101309.8     98.7     -4.56334  -0.01932  -0.22928  -0.46299
 868  101338.0     98.7    -14.14858   0.10008   0.11407  -0.36958
 869  101357.2     98.7     -6.59269  -0.01948  -0.05431   0.33771
 870  101368.7     98.6     10.10567  -0.03847   0.11467  -0.09108
 871  101395.1     98.6    -11.08839   0.07312  -0.21160  -0.07819
 872  101452.8     98.6      6.15617   0.01303   0.19041  -0.30312
 873  101465.0     98.6     -4.06688  -0.10057  -0.03824   0.10166
 874  101503.3     98.5     -1.97131  -0.00855  -0.05092  -0.00985
 875  101532.3     98.5     11.61434  -0.09391  -0.04671   0.10649
 876  101555.5     98.5     -1.75860  -0.11092  -0.09864   0.01694
 877  101567.5     98.5    -16.44702   0.01261   0.06807  -0.27693
 878  101627.1     98.4     -1.68424  -0.15267   0.16492   0.02858
 879  101712.8     98.3     12.49852   0.11894   0.13426   0.33977
 880  101734.2     98.3      1.71435  -0.04265   0.03755   0.09280
 881  101795.2     98.2     -2.17288   0.11668  -0.19694  -0.22461
 882  101817.3     98.2      0.33519   0.03629   0.06570  -0.50481
 883  101890.0     98.1     19.39927   0.15747   0.14097   0.27136
 884  101939.9     98.1      1.52554   0.04108  -0.23172  -0.07254
 885  102026.4     98.0     -0.30443   0.06706  -0.18282   0.26795
 886  102097.1     97.9     -9.47895  -0.09691  -0.17613   0.01597
 887  102123.0     97.9     -6.57904  -0.14435  -0.11924   0.05729
 888  102138.0     97.9     10.86545  -0.17804  -0.11343  -0.07988
 889  102159.7     97.9     -1.46923  -0.06662  -0.22180   0.24108
 890  102196.3     97.9     -8.07687  -0.10005   0.14031   0.12783
 891  102208.4     97.8      6.98705   0.03392   0.22681   0.18536
 892  102248.1     97.8     -4.02398   0.14178  -0.02243   0.10900
 893  102254.7     97.8     -2.82976  -0.03894  -0.08348  -0.00159
 894  102309.4     97.7     -6.44373   0.10253   0.12197   0.29522
 895  102367.0     97.7      4.40168   0.04399   0.08764  -0.19310
 896  102372.4     97.7     11.00611  -0.12350  -0.05674  -0.58266
 897  102418.4     97.6      2.84435   0.02119   0.13833  -0.23657
 898  102478.4     97.6     -1.23392   0.00863  -0.07693   0.18059
 899  102497.2     97.6      1.13089  -0.00904  -0.10761   0.06043
 900  102531.0     97.5      0.04340   0.11540   0.17293  -0.19993
 901  102566.7     97.5     -6.91191  -0.11067   0.07262  -0.18515
 902  102615.0     97.5      5.32390  -0.01810  -0.12699   0.15564
 903  102635.0     97.4     11.77593   0.21616   0.20057   0.25215
 904  102695.8     97.4     10.03453   0.01074  -0.23586   0.20780
 905  102711.1     97.4     -1.91193  -0.01285  -0.08046  -0.10335
 906  102745.9     97.3      9.30852   0.10755   0.02485  -0.15635
 907  102769.3     97.3      3.51342   0.00356   0.17952   0.05073
 908  102788.6     97.3      4.10269   0.05731  -0.10686   0.12437
 909  102843.9     97.2     -1.51381   0.11320   0.13198  -0.05234
 910  102862.6     97.2      5.44047   0.07351   0.26774  -0.27457
 911  102895.8     97.2    -17.96069  -0.01233   0.26011   0.15863
 912  102913.1     97.2      4.16589   0.02073  -0.03268   0.06402
 913  102931.2     97.2      0.05713  -0.02360  -0.03756  -0.22103
 914  102964.9     97.1      1.13229   0.00950   0.05778  -0.18741
 915  103009.5     97.1     11.32240  -0.14843  -0.14093   0.23510
 916  103016.4     97.1     -1.23748  -0.05653  -0.03442  -0.04652
 917  103047.2     97.0      0.17985  -0.01609   0.13206   0.00739
 918  103061.9     97.0     -3.98888   0.07469  -0.09682   0.01678
 919  103072.1     97.0      8.97760  -0.09330   0.15920  -0.03296
 920  103136.4     97.0     -5.88228  -0.05394  -0.04488  -0.30733
 921  103176.8     96.9      2.09509   0.10458   0.01307  -0.05787
 922  103202.1     96.9     -8.42296   0.27609   0.22954   0.06162
 923  103232.6     96.9     -3.18681  -0.12336  -0.10263  -0.04808
 924  103250.1     96.9     27.11169   0.01887   0.18615  -0.58060
 925  103278.1     96.8     -9.42520  -0.22261  -0.04094  -0.05032
 926  103315.7     96.8     -4.27404  -0.06464  -0.02696  -0.06717
 927  103348.0     96.8      1.99692  -0.00238   0.12998   0.08144
 928  103380.9     96.7      4.81467   0.08365  -0.08707   0.30126
 929  103403.6     96.7     -0.18108   0.01908   0.05036  -0.10071
 930  103430.2     96.7      1.53364   0.17563  -0.03246   0.00173
 931  103447.3     96.7     -3.15015   0.02189   0.05600   0.10957
 932  103467.0     96.6     -0.50291   0.11259  -0.02053   0.16295
 933  103504.6     96.6      1.36972  -0.13078  -0.19759  -0.02157
 934  103512.7     96.6     -9.45808   0.05411  -0.08661  -0.19746
 935  103522.6     96.6      3.15386   0.20291   0.02336  -0.09030
 936  103625.8     96.5     -9.13719   0.12467  -0.19783  -0.00182
 937  103638.2     96.5    -15.30188  -0.04108   0.12943   0.34790
 938  103659.2     96.5      6.12334   0.01794   0.08252  -0.16902
 939  103715.4     96.4      2.09315   0.13121   0.01189  -0.05253
 940  103727.4     96.4      1.23027  -0.03092  -0.01646  -0.05554
 941  103795.9     96.3    -14.24049  -0.25361   0.13611  -0.26638
 942  103807.6     96.3     -7.97807   0.11968   0.16668  -0.23358
 943  103827.2     96.3      6.06082   0.04818  -0.00178   0.10264
 944  103895.7     96.3     10.11101  -0.09396   0.26149   0.20093
 945  103902.4     96.2    -19.70672  -0.28745  -0.08857  -0.11102
 946  103943.0     96.2      4.04042  -0.24240   0.03655  -0.11138
 947  103959.3     96.2     -1.68555   0.07196   0.00045  -0.05666
 948  104026.6     96.1      1.38273   0.14950   0.11354   0.01669
 949  104035.1     96.1      2.71193  -0.11136  -0.05181  -0.02943
 950  104058.0     96.1      7.24267  -0.00886  -0.04307  -0.21461
 951  104076.4     96.1     11.66107  -0.17052   0.14901   0.16168
 952  104122.6     96.0      2.54315  -0.01296   0.11584   0.01564
 953  104143.7     96.0     10.18276  -0.17051   0.00569   0.18113
 954  104176.4     96.0     -0.15936  -0.02395   0.02904   0.10820
 955  104196.7     96.0     -1.40876  -0.15072   0.10585   0.10758
 956  104238.5     95.9      2.74059   0.03324   0.00383   0.08841
 957  104271.9     95.9      0.60885  -0.05672   0.19332   0.01409
 958  104288.3     95.9      3.50754  -0.07840   0.04513   0.05535
 959  104335.5     95.8     -1.89386   0.05698  -0.02396   0.18070
 960  104364.8     95.8      3.98787   0.05623  -0.12474   0.15185
 961  104377.1     95.8     -3.47318   0.14455  -0.01148   0.07858
 962  104407.4     95.8     14.57542  -0.28345   0.04519  -0.02840
 963  104419.3     95.8      9.69033  -0.06320   0.07596  -0.02745
 964  104447.2     95.7     13.25365  -0.11844  -0.04255   0.33443
 965  104467.9     95.7     -7.48923   0.19005  -0.06902  -0.11311
 966  104484.9     95.7      8.63041   0.06887   0.01385   0.26005
 967  104503.0     95.7     -0.19684  -0.01548   0.00034   0.01234
 968  104559.8     95.6     -4.84143  -0.09152  -0.14125   0.07257
 969  104595.3     95.6     -7.55357  -0.05242   0.03721  -0.14229
 970  104617.8     95.6     -5.44829   0.06421  -0.13569  -0.00423
 971  104655.4     95.6    -10.19787   0.04799   0.09578  -0.08832
 972  104673.6     95.5     -1.95299  -0.23740  -0.12834   0.04024
 973  104688.3     95.5     -2.22632  -0.15842   0.03307  -0.09667
 974  104738.2     95.5      1.14128  -0.00529   0.11480   0.26871
 975  104763.2     95.5      0.94477  -0.00513  -0.20040   0.01293
 976  104810.8     95.4     -7.46640  -0.13897   0.06299   0.10372
 977  104854.7     95.4      4.67124  -0.00514   0.08065  -0.22509
 978  104875.3     95.4      7.70710   0.15843   0.09846  -0.01180
 979  104879.4     95.3     -8.25434  -0.15310   0.10047  -0.05464
 980  104903.1     95.3     -1.26003   0.04019  -0.13478  -0.21113
 981  104950.1     95.3     -1.45634   0.03265   0.09713   0.13256
 982  104991.2     95.2    -13.46385   0.05007  -0.14049  -0.03413
 983  105013.7     95.2     -4.96924   0.14504  -0.03762   0.12828
 984  105048.5     95.2      0.74699  -0.00805  -0.16863  -0.21897
 985  105056.5     95.2     24.06991   0.03333   0.17831  -0.04293
 986  105080.6     95.2      7.21993   0.02347   0.12456  -0.00792
 987  105106.5     95.1      0.99877   0.06988  -0.06209   0.04422
 988  105138.2     95.1     -6.24942   0.11894   0.06712  -0.50131
 989  105163.5     95.1      5.35141   0.10564   0.08227   0.22299
 990  105196.8     95.1     -6.57830   0.05112   0.01564   0.18941
 991  105242.5     95.0      3.55998  -0.09773  -0.01694  -0.11163
 992  105310.9     95.0      1.11471   0.01462   0.01018  -0.01337
 993  105317.7     95.0      2.23034   0.04897  -0.25864   0.02849
 994  105369.6     94.9     -5.27697  -0.07394  -0.05398   0.20929
 995  105409.3     94.9     -0.72327   0.01040  -0.00110  -0.04537
 996  105452.9     94.8    -16.26956   0.06524   0.33908   0.03389
 997  105467.4     94.8     -2.41914   0.07343   0.00152   0.20471
 998  105501.6     94.8     -1.80380  -0.04796  -0.02404   0.10187
 999  105522.4     94.8      0.95990   0.01428  -0.05683  -0.07929
 1000  105532.2     94.8      3.27803  -0.07219  -0.12753  -0.05497

Total run time:    12999.890 sec

           *** ORCA-CIS/TD-DFT FINISHED WITHOUT ERROR ***

Maximum memory used throughout the entire CIS-calculation: 4390.4 MB

-----------------------
CIS/TD-DFT TOTAL ENERGY
-----------------------

    E(SCF)  =   -732.209792780 Eh
    DE(CIS) =      0.134603278 Eh (Root  1)
    ----------------------------- ---------
    E(tot)  =   -732.075189502 Eh



-------------------------------------------------------------------------------
                          DFT DISPERSION CORRECTION                            
                                                                               
                                 DFTD4 V2.5                                    
-------------------------------------------------------------------------------
The B3LYP functional is recognized
Active option DFTDOPT                   ...         5   

Starting D4
-------------------------   ----------------
Dispersion correction           -0.080062847
-------------------------   ----------------


-------------------------   --------------------
FINAL SINGLE POINT ENERGY      -732.155252349207
-------------------------   --------------------


                            ***************************************
                            *     ORCA property calculations      *
                            ***************************************

                                    ---------------------
                                    Active property flags
                                    ---------------------
   (+) Dipole Moment


------------------------------------------------------------------------------
                       ORCA ELECTRIC PROPERTIES CALCULATION
------------------------------------------------------------------------------

Dipole Moment Calculation                       ... on
Quadrupole Moment Calculation                   ... off
Polarizability Calculation                      ... off
GBWName                                         ... 78Dihydro9Hcyclopentaapyrene_spectra.gbw
Electron density                                ... 78Dihydro9Hcyclopentaapyrene_spectra.scfp
The origin for moment calculation is the CENTER OF MASS  = (-0.000243,  0.001752 -0.004961)

-------------
DIPOLE MOMENT
-------------
                                X             Y             Z
Electronic contribution:    -10.13369      -1.64428       0.23244
Nuclear contribution   :     10.53357       1.71059      -0.21576
                        -----------------------------------------
Total Dipole Moment    :      0.39988       0.06631       0.01668
                        -----------------------------------------
Magnitude (a.u.)       :      0.40568
Magnitude (Debye)      :      1.03117



--------------------
Rotational spectrum 
--------------------
 
Rotational constants in cm-1:     0.029333     0.009803     0.007391 
Rotational constants in MHz :   879.381870   293.878780   221.579989 

 Dipole components along the rotational axes: 
x,y,z [a.u.] :     0.399513     0.068492     0.016656 
x,y,z [Debye]:     1.015481     0.174092     0.042337 

 

Timings for individual modules:

Sum of individual times         ...    13828.271 sec (= 230.471 min)
GTO integral calculation        ...        0.658 sec (=   0.011 min)   0.0 %
SCF iterations                  ...      827.575 sec (=  13.793 min)   6.0 %
CIS module                      ...    13000.038 sec (= 216.667 min)  94.0 %
                             ****ORCA TERMINATED NORMALLY****
TOTAL RUN TIME: 0 days 3 hours 50 minutes 29 seconds 85 msec
