
                                 *****************
                                 * O   R   C   A *
                                 *****************

                                            #,                                       
                                            ###                                      
                                            ####                                     
                                            #####                                    
                                            ######                                   
                                           ########,                                 
                                     ,,################,,,,,                         
                               ,,#################################,,                 
                          ,,##########################################,,             
                       ,#########################################, ''#####,          
                    ,#############################################,,   '####,        
                  ,##################################################,,,,####,       
                ,###########''''           ''''###############################       
              ,#####''   ,,,,##########,,,,          '''####'''          '####       
            ,##' ,,,,###########################,,,                        '##       
           ' ,,###''''                  '''############,,,                           
         ,,##''                                '''############,,,,        ,,,,,,###''
      ,#''                                            '''#######################'''  
     '                                                          ''''####''''         
             ,#######,   #######,   ,#######,      ##                                
            ,#'     '#,  ##    ##  ,#'     '#,    #''#        ######   ,####,        
            ##       ##  ##   ,#'  ##            #'  '#       #        #'  '#        
            ##       ##  #######   ##           ,######,      #####,   #    #        
            '#,     ,#'  ##    ##  '#,     ,#' ,#      #,         ##   #,  ,#        
             '#######'   ##     ##  '#######'  #'      '#     #####' # '####'        



                  #######################################################
                  #                        -***-                        #
                  #          Department of theory and spectroscopy      #
                  #    Directorship and core code : Frank Neese         #
                  #        Max Planck Institute fuer Kohlenforschung    #
                  #                Kaiser Wilhelm Platz 1               #
                  #                 D-45470 Muelheim/Ruhr               #
                  #                      Germany                        #
                  #                                                     #
                  #                  All rights reserved                #
                  #                        -***-                        #
                  #######################################################



                         Program Version 5.0.4 -  RELEASE  -

 With contributions from (in alphabetic order):
   Daniel Aravena         : Magnetic Suceptibility
   Michael Atanasov       : Ab Initio Ligand Field Theory (pilot matlab implementation)
   Alexander A. Auer      : GIAO ZORA, VPT2 properties, NMR spectrum
   Ute Becker             : Parallelization
   Giovanni Bistoni       : ED, misc. LED, open-shell LED, HFLD
   Martin Brehm           : Molecular dynamics
   Dmytro Bykov           : SCF Hessian
   Vijay G. Chilkuri      : MRCI spin determinant printing, contributions to CSF-ICE
   Dipayan Datta          : RHF DLPNO-CCSD density
   Achintya Kumar Dutta   : EOM-CC, STEOM-CC
   Dmitry Ganyushin       : Spin-Orbit,Spin-Spin,Magnetic field MRCI
   Miquel Garcia          : C-PCM and meta-GGA Hessian, CC/C-PCM, Gaussian charge scheme
   Yang Guo               : DLPNO-NEVPT2, F12-NEVPT2, CIM, IAO-localization
   Andreas Hansen         : Spin unrestricted coupled pair/coupled cluster methods
   Benjamin Helmich-Paris : MC-RPA, TRAH-SCF, COSX integrals
   Lee Huntington         : MR-EOM, pCC
   Robert Izsak           : Overlap fitted RIJCOSX, COSX-SCS-MP3, EOM
   Marcus Kettner         : VPT2
   Christian Kollmar      : KDIIS, OOCD, Brueckner-CCSD(T), CCSD density, CASPT2, CASPT2-K
   Simone Kossmann        : Meta GGA functionals, TD-DFT gradient, OOMP2, MP2 Hessian
   Martin Krupicka        : Initial AUTO-CI
   Lucas Lang             : DCDCAS
   Marvin Lechner         : AUTO-CI (C++ implementation), FIC-MRCC
   Dagmar Lenk            : GEPOL surface, SMD
   Dimitrios Liakos       : Extrapolation schemes; Compound Job, initial MDCI parallelization
   Dimitrios Manganas     : Further ROCIS development; embedding schemes
   Dimitrios Pantazis     : SARC Basis sets
   Anastasios Papadopoulos: AUTO-CI, single reference methods and gradients
   Taras Petrenko         : DFT Hessian,TD-DFT gradient, ASA, ECA, R-Raman, ABS, FL, XAS/XES, NRVS
   Peter Pinski           : DLPNO-MP2, DLPNO-MP2 Gradient
   Christoph Reimann      : Effective Core Potentials
   Marius Retegan         : Local ZFS, SOC
   Christoph Riplinger    : Optimizer, TS searches, QM/MM, DLPNO-CCSD(T), (RO)-DLPNO pert. Triples
   Tobias Risthaus        : Range-separated hybrids, TD-DFT gradient, RPA, STAB
   Michael Roemelt        : Original ROCIS implementation
   Masaaki Saitow         : Open-shell DLPNO-CCSD energy and density
   Barbara Sandhoefer     : DKH picture change effects
   Avijit Sen             : IP-ROCIS
   Kantharuban Sivalingam : CASSCF convergence, NEVPT2, FIC-MRCI
   Bernardo de Souza      : ESD, SOC TD-DFT
   Georgi Stoychev        : AutoAux, RI-MP2 NMR, DLPNO-MP2 response
   Willem Van den Heuvel  : Paramagnetic NMR
   Boris Wezisla          : Elementary symmetry handling
   Frank Wennmohs         : Technical directorship


 We gratefully acknowledge several colleagues who have allowed us to
 interface, adapt or use parts of their codes:
   Stefan Grimme, W. Hujo, H. Kruse, P. Pracht,  : VdW corrections, initial TS optimization,
                  C. Bannwarth, S. Ehlert          DFT functionals, gCP, sTDA/sTD-DF
   Ed Valeev, F. Pavosevic, A. Kumar             : LibInt (2-el integral package), F12 methods
   Garnet Chan, S. Sharma, J. Yang, R. Olivares  : DMRG
   Ulf Ekstrom                                   : XCFun DFT Library
   Mihaly Kallay                                 : mrcc  (arbitrary order and MRCC methods)
   Jiri Pittner, Ondrej Demel                    : Mk-CCSD
   Frank Weinhold                                : gennbo (NPA and NBO analysis)
   Christopher J. Cramer and Donald G. Truhlar   : smd solvation model
   Lars Goerigk                                  : TD-DFT with DH, B97 family of functionals
   V. Asgeirsson, H. Jonsson                     : NEB implementation
   FAccTs GmbH                                   : IRC, NEB, NEB-TS, DLPNO-Multilevel, CI-OPT
                                                   MM, QMMM, 2- and 3-layer-ONIOM, Crystal-QMMM,
                                                   LR-CPCM, SF, NACMEs, symmetry and pop. for TD-DFT,
                                                   nearIR, NL-DFT gradient (VV10), updates on ESD,
                                                   ML-optimized integration grids
   S Lehtola, MJT Oliveira, MAL Marques          : LibXC Library
   Liviu Ungur et al                             : ANISO software


 Your calculation uses the libint2 library for the computation of 2-el integrals
 For citations please refer to: http://libint.valeyev.net

 Your ORCA version has been built with support for libXC version: 5.1.0
 For citations please refer to: https://tddft.org/programs/libxc/

 This ORCA versions uses:
   CBLAS   interface :  Fast vector & matrix operations
   LAPACKE interface :  Fast linear algebra routines
   Shared memory     :  Shared parallel matrices


Your calculation utilizes the atom-pairwise dispersion correction
based on tight binding partial charges (D4)
Cite in your paper:
E.Caldeweyher, C.Bannwarth, S.Grimme, J.Chem.Phys., (2017), 147, 034112.
E.Caldeweyher, S.Ehlert, A.Hansen, H.Neugebauer, S.Grimme, J.Chem.Phys., (2018), in progress.
   

================================================================================

----- Orbital basis set information -----
Your calculation utilizes the basis: 6-311+G**
   H, Li - Ne  : R. Krishnan, J. S. Binkley, R. Seeger and J. A. Pople, J. Chem. Phys. 72, 650 (1980).
   Na - Ar     : A. D. McLean and G. S. Chandler J. Chem. Phys. 72, 5639, (1980).
   K  - Ca     : J.-P. Blaudeau, M. P. McGrath, L. A. Curtiss and L. Radom, J. Chem. Phys. 107, 5016 (1997).
   Ga - Kr     : L. A. Curtiss, M. P. McGrath, J.-P. Blandeau, N. E. Davis, R. C. Binning and L. Radom, J. Chem. Phys. 103, 6104 (1995).
   Pol./Diff.
   H, Li - Cl  : T. Clark, J. Chandrasekhar and P. v. R. Schleyer, J. Comp. Chem. 4, 294 (1983).
   H - Ne      : M. J. Frisch, J. A. Pople and J. S. Binkley, J. Chem. Phys. 80, 3265 (1984).

----- AuxJ basis set information -----
Your calculation utilizes the auxiliary basis: def2/J
   F. Weigend, Phys. Chem. Chem. Phys. 8, 1057 (2006).

================================================================================
                                        WARNINGS
                       Please study these warnings very carefully!
================================================================================

INFO   : Checking CIS options ...

WARNING: CIS/ROCIS methods need fully converged wavefunctions
  ===> : Setting SCFConvForced true
         You can overwrite this default with %scf ConvForced false 


INFO   : the flag for use of the SHARK integral package has been found!

================================================================================
                                       INPUT FILE
================================================================================
NAME = Stone-Wales_defect_loss_four.inp
|  1> !b3lyp 6-311+g** d4  UKS moread
|  2> 
|  3> % moinp "Stone-Wales_defect_loss_four_orca6.0.0.gbw"
|  4> 
|  5>   
|  6> %maxcore 5000
|  7> %pal
|  8> nprocs 8
|  9> end
| 10>   
| 11> 
| 12> %scf
| 13>   stabperform true
| 14>   STABDTol 0.00001
| 15>   STABRTol 0.00001
| 16>   end
| 17>   
| 18> %tddft
| 19>   nroots 1000
| 20>   end
| 21>   
| 22>   
| 23> * xyz 0 1
| 24>   C   2.65263223987661     -3.24222837205533      0.00423810167507
| 25>   C   1.58321155825378     -3.89013745107644      0.00356767542366
| 26>   C   0.41707580300310     -3.08639665334534      0.00435352508535
| 27>   C   -0.92580698717380     -3.49073005508833      0.00391757303769
| 28>   C   -2.09375524502203     -2.74997217808090      0.00463429738471
| 29>   C   -2.21722251115601     -1.34494138523039      0.00606399495331
| 30>   C   -3.42830510189346     -0.58760122467869      0.00681950892643
| 31>   C   -3.63101922317580      0.62944609417213      0.00807225771813
| 32>   C   -2.64813956860818      1.66207235107236      0.00914117988147
| 33>   C   -2.60823523590207      3.07701832745724      0.01058600324656
| 34>   C   -1.39488245241918      3.76508417776725      0.01127564458998
| 35>   C   -0.14147031335312      3.09206671215471      0.01059286086512
| 36>   C   1.19138019812525      3.61707808895886      0.01112744066277
| 37>   C   2.27397663245459      2.77021962670310      0.01028287245724
| 38>   C   2.18459804221119      1.32529977570023      0.00882520832142
| 39>   C   3.36911017102094      0.53973952352043      0.00806495439249
| 40>   C   3.47783393089536     -0.83409991407854      0.00668899755767
| 41>   C   2.48829012305239     -1.83519053510052      0.00565373366937
| 42>   C   0.30597435636692     -0.54009577297645      0.00691550012810
| 43>   C   -1.40639377490421      0.99059742065841      0.00846288991340
| 44>   C   -1.14960193559369     -0.39703446569369      0.00704598081183
| 45>   C   1.00555215554687     -1.71093891441525      0.00575192334366
| 46>   H   -1.05614773528199     -4.56844898375500      0.00282447081112
| 47>   H   -3.02367644255227     -3.30567952014598      0.00404749921006
| 48>   H   -3.53522356670493      3.63773067563067      0.01116526029279
| 49>   H   -1.41365589412053      4.84971218254795      0.01238132727961
| 50>   H   1.35380410031795      4.68977263585563      0.01220893737835
| 51>   H   3.26997331672657      3.20022004918214      0.01072691561798
| 52>   H   4.30310853517328      1.09238952034645      0.00863951526354
| 53>   H   4.49070585619504     -1.22497074558989      0.00632035391925
| 54>   C   0.88282088638576      0.80799104872083      0.00828359837618
| 55>   C   -0.19653191774435      1.69960796086236      0.00917999780569
| 56> **                         ****END OF INPUT****
================================================================================

                       ****************************
                       * Single Point Calculation *
                       ****************************

---------------------------------
CARTESIAN COORDINATES (ANGSTROEM)
---------------------------------
  C      2.652632   -3.242228    0.004238
  C      1.583212   -3.890137    0.003568
  C      0.417076   -3.086397    0.004354
  C     -0.925807   -3.490730    0.003918
  C     -2.093755   -2.749972    0.004634
  C     -2.217223   -1.344941    0.006064
  C     -3.428305   -0.587601    0.006820
  C     -3.631019    0.629446    0.008072
  C     -2.648140    1.662072    0.009141
  C     -2.608235    3.077018    0.010586
  C     -1.394882    3.765084    0.011276
  C     -0.141470    3.092067    0.010593
  C      1.191380    3.617078    0.011127
  C      2.273977    2.770220    0.010283
  C      2.184598    1.325300    0.008825
  C      3.369110    0.539740    0.008065
  C      3.477834   -0.834100    0.006689
  C      2.488290   -1.835191    0.005654
  C      0.305974   -0.540096    0.006916
  C     -1.406394    0.990597    0.008463
  C     -1.149602   -0.397034    0.007046
  C      1.005552   -1.710939    0.005752
  H     -1.056148   -4.568449    0.002824
  H     -3.023676   -3.305680    0.004047
  H     -3.535224    3.637731    0.011165
  H     -1.413656    4.849712    0.012381
  H      1.353804    4.689773    0.012209
  H      3.269973    3.200220    0.010727
  H      4.303109    1.092390    0.008640
  H      4.490706   -1.224971    0.006320
  C      0.882821    0.807991    0.008284
  C     -0.196532    1.699608    0.009180

----------------------------
CARTESIAN COORDINATES (A.U.)
----------------------------
  NO LB      ZA    FRAG     MASS         X           Y           Z
   0 C     6.0000    0    12.011    5.012748   -6.126924    0.008009
   1 C     6.0000    0    12.011    2.991836   -7.351294    0.006742
   2 C     6.0000    0    12.011    0.788159   -5.832444    0.008227
   3 C     6.0000    0    12.011   -1.749522   -6.596524    0.007403
   4 C     6.0000    0    12.011   -3.956624   -5.196694    0.008758
   5 C     6.0000    0    12.011   -4.189943   -2.541571    0.011459
   6 C     6.0000    0    12.011   -6.478558   -1.110405    0.012887
   7 C     6.0000    0    12.011   -6.861632    1.189481    0.015254
   8 C     6.0000    0    12.011   -5.004259    3.140862    0.017274
   9 C     6.0000    0    12.011   -4.928850    5.814722    0.020005
  10 C     6.0000    0    12.011   -2.635946    7.114978    0.021308
  11 C     6.0000    0    12.011   -0.267340    5.843159    0.020018
  12 C     6.0000    0    12.011    2.251382    6.835287    0.021028
  13 C     6.0000    0    12.011    4.297193    5.234956    0.019432
  14 C     6.0000    0    12.011    4.128292    2.504454    0.016677
  15 C     6.0000    0    12.011    6.366696    1.019960    0.015241
  16 C     6.0000    0    12.011    6.572154   -1.576220    0.012640
  17 C     6.0000    0    12.011    4.702187   -3.468008    0.010684
  18 C     6.0000    0    12.011    0.578208   -1.020633    0.013068
  19 C     6.0000    0    12.011   -2.657699    1.871958    0.015993
  20 C     6.0000    0    12.011   -2.172433   -0.750286    0.013315
  21 C     6.0000    0    12.011    1.900218   -3.233206    0.010870
  22 H     1.0000    0     1.008   -1.995830   -8.633117    0.005337
  23 H     1.0000    0     1.008   -5.713920   -6.246829    0.007649
  24 H     1.0000    0     1.008   -6.680604    6.874315    0.021099
  25 H     1.0000    0     1.008   -2.671422    9.164628    0.023397
  26 H     1.0000    0     1.008    2.558319    8.862386    0.023072
  27 H     1.0000    0     1.008    6.179354    6.047539    0.020271
  28 H     1.0000    0     1.008    8.131697    2.064317    0.016326
  29 H     1.0000    0     1.008    8.486204   -2.314859    0.011944
  30 C     6.0000    0    12.011    1.668290    1.526882    0.015654
  31 C     6.0000    0    12.011   -0.371392    3.211794    0.017348

--------------------------------
INTERNAL COORDINATES (ANGSTROEM)
--------------------------------
 C      0   0   0     0.000000000000     0.00000000     0.00000000
 C      1   0   0     1.250378829968     0.00000000     0.00000000
 C      2   1   0     1.416288278272   114.21443004     0.00000000
 C      3   2   1     1.402433555636   128.66732161   179.99973058
 C      4   3   2     1.383049485396   130.85881945   180.00030578
 C      5   4   3     1.410445936114   127.40643139     0.00000000
 C      6   5   4     1.428385708124   127.04143416   180.00117170
 C      7   6   5     1.233814718938   131.47595807   179.99903309
 C      8   7   6     1.425612340153   126.95740404     0.00000000
 C      9   8   7     1.415509293283   138.02932704   179.99920940
 C     10   9   8     1.394869193564   121.17206479   180.00149276
 C     11  10   9     1.422671770146   122.20985312     0.00000000
 C     12  11  10     1.432524944808   130.26694170   180.00051045
 C     13  12  11     1.374476266806   120.46622803   179.99927472
 C     14  13  12     1.447682296984   124.49458286     0.00000000
 C     15  14  13     1.421328417745   120.01243417   180.00100703
 C     16  15  14     1.378135533799   128.07695087   179.99973929
 C     17  16  15     1.407615164351   130.80748353     0.00000000
 C     18  17  16     2.537671007136   103.98062627     0.00000000
 C      9   8   7     1.411669812114   105.18375038     0.00000000
 C     20   9   8     1.411193221493   128.88675449     0.00000000
 C     19  18  17     1.363922326553    28.45471646   180.00049823
 H      4   3   2     1.085572657493   113.65265254     0.00000000
 H      5   4   3     1.083311787055   116.75360266   179.99950717
 H     10   9   8     1.083377145032   119.55329365     0.00000000
 H     11  10   9     1.084791027527   118.56502438   179.99985667
 H     13  12  11     1.084922248173   120.10967990     0.00000000
 H     14  13  12     1.084854808528   118.61451865   180.00040491
 H     16  15  14     1.085253561778   115.83496494     0.00000000
 H     17  16  15     1.085674757874   115.62666128   179.99997832
 C     15  14  13     1.400797050175   115.21185841     0.00000000
 C     12  11  10     1.393547685051   115.96905974     0.00000000

---------------------------
INTERNAL COORDINATES (A.U.)
---------------------------
 C      0   0   0     0.000000000000     0.00000000     0.00000000
 C      1   0   0     2.362873552292     0.00000000     0.00000000
 C      2   1   0     2.676396972617   114.21443004     0.00000000
 C      3   2   1     2.650215341173   128.66732161   179.99973058
 C      4   3   2     2.613584757058   130.85881945   180.00030578
 C      5   4   3     2.665356545957   127.40643139     0.00000000
 C      6   5   4     2.699257801962   127.04143416   180.00117170
 C      7   6   5     2.331571918794   131.47595807   179.99903309
 C      8   7   6     2.694016896028   126.95740404     0.00000000
 C      9   8   7     2.674924904326   138.02932704   179.99920940
 C     10   9   8     2.635920768479   121.17206479   180.00149276
 C     11  10   9     2.688460024038   122.20985312     0.00000000
 C     12  11  10     2.707079825698   130.26694170   180.00051045
 C     13  12  11     2.597383721837   120.46622803   179.99927472
 C     14  13  12     2.735723070226   124.49458286     0.00000000
 C     15  14  13     2.685921455897   120.01243417   180.00100703
 C     16  15  14     2.604298734306   128.07695087   179.99973929
 C     17  16  15     2.660007162577   130.80748353     0.00000000
 C     18  17  16     4.795503221480   103.98062627     0.00000000
 C      9   8   7     2.667669336419   105.18375038     0.00000000
 C     20   9   8     2.666768710669   128.88675449     0.00000000
 C     19  18  17     2.577439665127    28.45471646   180.00049823
 H      4   3   2     2.051435021135   113.65265254     0.00000000
 H      5   4   3     2.047162595184   116.75360266   179.99950717
 H     10   9   8     2.047286103860   119.55329365     0.00000000
 H     11  10   9     2.049957954560   118.56502438   179.99985667
 H     13  12  11     2.050205925645   120.10967990     0.00000000
 H     14  13  12     2.050078483186   118.61451865   180.00040491
 H     16  15  14     2.050832017622   115.83496494     0.00000000
 H     17  16  15     2.051627962893   115.62666128   179.99997832
 C     15  14  13     2.647122794036   115.21185841     0.00000000
 C     12  11  10     2.633423479306   115.96905974     0.00000000

---------------------
BASIS SET INFORMATION
---------------------
There are 2 groups of distinct atoms

 Group   1 Type C   : 12s6p1d contracted to 5s4p1d pattern {63111/3111/1}
 Group   2 Type H   : 5s1p contracted to 3s1p pattern {311/1}

Atom   0C    basis set group =>   1
Atom   1C    basis set group =>   1
Atom   2C    basis set group =>   1
Atom   3C    basis set group =>   1
Atom   4C    basis set group =>   1
Atom   5C    basis set group =>   1
Atom   6C    basis set group =>   1
Atom   7C    basis set group =>   1
Atom   8C    basis set group =>   1
Atom   9C    basis set group =>   1
Atom  10C    basis set group =>   1
Atom  11C    basis set group =>   1
Atom  12C    basis set group =>   1
Atom  13C    basis set group =>   1
Atom  14C    basis set group =>   1
Atom  15C    basis set group =>   1
Atom  16C    basis set group =>   1
Atom  17C    basis set group =>   1
Atom  18C    basis set group =>   1
Atom  19C    basis set group =>   1
Atom  20C    basis set group =>   1
Atom  21C    basis set group =>   1
Atom  22H    basis set group =>   2
Atom  23H    basis set group =>   2
Atom  24H    basis set group =>   2
Atom  25H    basis set group =>   2
Atom  26H    basis set group =>   2
Atom  27H    basis set group =>   2
Atom  28H    basis set group =>   2
Atom  29H    basis set group =>   2
Atom  30C    basis set group =>   1
Atom  31C    basis set group =>   1
---------------------------------
AUXILIARY/J BASIS SET INFORMATION
---------------------------------
There are 2 groups of distinct atoms

 Group   1 Type C   : 12s5p4d2f1g contracted to 6s4p3d1f1g pattern {711111/2111/211/2/1}
 Group   2 Type H   : 5s2p1d contracted to 3s1p1d pattern {311/2/1}

Atom   0C    basis set group =>   1
Atom   1C    basis set group =>   1
Atom   2C    basis set group =>   1
Atom   3C    basis set group =>   1
Atom   4C    basis set group =>   1
Atom   5C    basis set group =>   1
Atom   6C    basis set group =>   1
Atom   7C    basis set group =>   1
Atom   8C    basis set group =>   1
Atom   9C    basis set group =>   1
Atom  10C    basis set group =>   1
Atom  11C    basis set group =>   1
Atom  12C    basis set group =>   1
Atom  13C    basis set group =>   1
Atom  14C    basis set group =>   1
Atom  15C    basis set group =>   1
Atom  16C    basis set group =>   1
Atom  17C    basis set group =>   1
Atom  18C    basis set group =>   1
Atom  19C    basis set group =>   1
Atom  20C    basis set group =>   1
Atom  21C    basis set group =>   1
Atom  22H    basis set group =>   2
Atom  23H    basis set group =>   2
Atom  24H    basis set group =>   2
Atom  25H    basis set group =>   2
Atom  26H    basis set group =>   2
Atom  27H    basis set group =>   2
Atom  28H    basis set group =>   2
Atom  29H    basis set group =>   2
Atom  30C    basis set group =>   1
Atom  31C    basis set group =>   1


           ************************************************************
           *        Program running with 8 parallel MPI-processes     *
           *              working on a common directory               *
           ************************************************************
------------------------------------------------------------------------------
                           ORCA GTO INTEGRAL CALCULATION
                           -- RI-GTO INTEGRALS CHOSEN --
------------------------------------------------------------------------------
------------------------------------------------------------------------------
                   ___                                                        
                  /   \      - P O W E R E D   B Y -                         
                 /     \                                                     
                 |  |  |   _    _      __       _____    __    __             
                 |  |  |  | |  | |    /  \     |  _  \  |  |  /  |          
                  \  \/   | |  | |   /    \    | | | |  |  | /  /          
                 / \  \   | |__| |  /  /\  \   | |_| |  |  |/  /          
                |  |  |   |  __  | /  /__\  \  |    /   |      \           
                |  |  |   | |  | | |   __   |  |    \   |  |\   \          
                \     /   | |  | | |  |  |  |  | |\  \  |  | \   \       
                 \___/    |_|  |_| |__|  |__|  |_| \__\ |__|  \__/        
                                                                              
                      - O R C A' S   B I G   F R I E N D -                    
                                      &                                       
                       - I N T E G R A L  F E E D E R -                       
                                                                              
 v1 FN, 2020, v2 2021                                                         
------------------------------------------------------------------------------


Reading SHARK input file Stone-Wales_defect_loss_four.SHARKINP.tmp ... ok
----------------------
SHARK INTEGRAL PACKAGE
----------------------

Number of atoms                             ...     32
Number of basis functions                   ...    576
Number of shells                            ...    272
Maximum angular momentum                    ...      2
Integral batch strategy                     ... SHARK/LIBINT Hybrid
RI-J (if used) integral strategy            ... SPLIT-RIJ (Revised 2003 algorithm where possible)
Printlevel                                  ...      1
Contraction scheme used                     ... SEGMENTED contraction
Coulomb Range Separation                    ... NOT USED
Exchange Range Separation                   ... NOT USED
Finite Nucleus Model                        ... NOT USED
Auxiliary Coulomb fitting basis             ... AVAILABLE
   # of basis functions in Aux-J            ...   1264
   # of shells in Aux-J                     ...    400
   Maximum angular momentum in Aux-J        ...      4
Auxiliary J/K fitting basis                 ... NOT available
Auxiliary Correlation fitting basis         ... NOT available
Auxiliary 'external' fitting basis          ... NOT available
Integral threshold                          ...     1.000000e-10
Primitive cut-off                           ...     1.000000e-11
Primitive pair pre-selection threshold      ...     1.000000e-11

Calculating pre-screening integrals         ... done (  0.0 sec) Dimension = 272
Organizing shell pair data                  ... done (  0.2 sec)
Shell pair information
Total number of shell pairs                 ...     37128
Shell pairs after pre-screening             ...     29665
Total number of primitive shell pairs       ...    127788
Primitive shell pairs kept                  ...     67138
          la=0 lb=0:   7935 shell pairs
          la=1 lb=0:  12243 shell pairs
          la=1 lb=1:   4732 shell pairs
          la=2 lb=0:   2535 shell pairs
          la=2 lb=1:   1992 shell pairs
          la=2 lb=2:    228 shell pairs

Calculating one electron integrals          ... done (  0.0 sec)
Calculating RI/J V-Matrix + Cholesky decomp.... done (  0.1 sec)
Calculating Nuclear repulsion               ... done (  0.0 sec) ENN=   1747.442427203160 Eh

SHARK setup successfully completed in   0.6 seconds

Maximum memory used throughout the entire GTOINT-calculation: 40.3 MB


           ************************************************************
           *        Program running with 8 parallel MPI-processes     *
           *              working on a common directory               *
           ************************************************************
-------------------------------------------------------------------------------
                                 ORCA SCF
-------------------------------------------------------------------------------

------------
SCF SETTINGS
------------
Hamiltonian:
 Density Functional     Method          .... DFT(GTOs)
 Exchange Functional    Exchange        .... B88
   X-Alpha parameter    XAlpha          ....  0.666667
   Becke's b parameter  XBeta           ....  0.004200
 Correlation Functional Correlation     .... LYP
 LDA part of GGA corr.  LDAOpt          .... VWN-5
 Gradients option       PostSCFGGA      .... off
 Hybrid DFT is turned on
   Fraction HF Exchange ScalHFX         ....  0.200000
   Scaling of DF-GGA-X  ScalDFX         ....  0.720000
   Scaling of DF-GGA-C  ScalDFC         ....  0.810000
   Scaling of DF-LDA-C  ScalLDAC        ....  1.000000
   Perturbative correction              ....  0.000000
   Density functional embedding theory  .... OFF
   NL short-range parameter             ....  4.800000
 RI-approximation to the Coulomb term is turned on
   Number of AuxJ basis functions       .... 1264
   RIJ-COSX (HFX calculated with COS-X)).... on


General Settings:
 Integral files         IntName         .... Stone-Wales_defect_loss_four
 Hartree-Fock type      HFTyp           .... UHF
 Total Charge           Charge          ....    0
 Multiplicity           Mult            ....    1
 Number of Electrons    NEL             ....  152
 Basis Dimension        Dim             ....  576
 Nuclear Repulsion      ENuc            ....   1747.4424272032 Eh

Convergence Acceleration:
 DIIS                   CNVDIIS         .... on
   Start iteration      DIISMaxIt       ....    12
   Startup error        DIISStart       ....  0.200000
   # of expansion vecs  DIISMaxEq       ....     5
   Bias factor          DIISBfac        ....   1.050
   Max. coefficient     DIISMaxC        ....  10.000
 Trust-Rad. Augm. Hess. CNVTRAH         .... auto
   Auto Start mean grad. ratio tolernc. ....  1.125000
   Auto Start start iteration           ....     1
   Auto Start num. interpolation iter.  ....    10
   Max. Number of Micro iterations      ....    16
   Max. Number of Macro iterations      .... Maxiter - #DIIS iter
   Number of Davidson start vectors     ....     2
   Converg. threshold I  (grad. norm)   ....   5.000e-05
   Converg. threshold II (energy diff.) ....   1.000e-06
   Grad. Scal. Fac. for Micro threshold ....   0.100
   Minimum threshold for Micro iter.    ....   0.010
   NR start threshold (gradient norm)   ....   0.001
   Initial trust radius                 ....   0.400
   Minimum AH scaling param. (alpha)    ....   1.000
   Maximum AH scaling param. (alpha)    .... 1000.000
   Orbital update algorithm             .... Taylor
   White noise on init. David. guess    .... on
   Maximum white noise                  ....   0.010
   Quad. conv. algorithm                .... NR
 SOSCF                  CNVSOSCF        .... off
 Level Shifting         CNVShift        .... on
   Level shift para.    LevelShift      ....    0.2500
   Turn off err/grad.   ShiftErr        ....    0.0010
 Zerner damping         CNVZerner       .... off
 Static damping         CNVDamp         .... on
   Fraction old density DampFac         ....    0.7000
   Max. Damping (<1)    DampMax         ....    0.9800
   Min. Damping (>=0)   DampMin         ....    0.0000
   Turn off err/grad.   DampErr         ....    0.1000
 Fernandez-Rico         CNVRico         .... off

SCF Procedure:
 Maximum # iterations   MaxIter         ....   125
 SCF integral mode      SCFMode         .... Direct
   Integral package                     .... SHARK and LIBINT hybrid scheme
 Reset frequency        DirectResetFreq ....    20
 Integral Threshold     Thresh          ....  1.000e-10 Eh
 Primitive CutOff       TCut            ....  1.000e-11 Eh

Convergence Tolerance:
 Convergence Check Mode ConvCheckMode   .... Total+1el-Energy
 Convergence forced     ConvForced      .... 1
 Energy Change          TolE            ....  1.000e-06 Eh
 1-El. energy change                    ....  1.000e-03 Eh
 DIIS Error             TolErr          ....  1.000e-06


Diagonalization of the overlap matrix:
Smallest eigenvalue                        ... 6.567e-10
Time for diagonalization                   ...    0.030 sec
Threshold for overlap eigenvalues          ... 1.000e-08
Number of eigenvalues below threshold      ... 5
Smallest eigenvalue above threshold        ... 1.022e-08
Time for construction of square roots      ...    0.048 sec
Total time needed                          ...    0.079 sec

---------------------
INITIAL GUESS: MOREAD
---------------------
Guess MOs are being read from file: Stone-Wales_defect_loss_four_orca6.0.0.gbw
Input Geometry matches current geometry (good)
Input basis set matches current basis set (good)
MOs were renormalized
MOs were reorthogonalized (Cholesky)
                      ------------------
                      INITIAL GUESS DONE (   0.2 sec)
                      ------------------
-------------------
DFT GRID GENERATION
-------------------

General Integration Accuracy     IntAcc      ... 4.388
Radial Grid Type                 RadialGrid  ... OptM3 with GC (2021)
Angular Grid (max. ang.)         AngularGrid ... 4 (Lebedev-302)
Angular grid pruning method      GridPruning ... 4 (adaptive)
Weight generation scheme         WeightScheme... Becke
Basis function cutoff            BFCut       ... 1.0000e-10
Integration weight cutoff        WCut        ... 1.0000e-14
Angular grids for H and He will be reduced by one unit
Partially contracted basis set               ... off
Rotationally invariant grid construction     ... off

Total number of grid points                  ...   173539
Total number of batches                      ...     2726
Average number of points per batch           ...       63
Average number of grid points per atom       ...     5423
Time for grid setup =    1.179 sec

--------------------
COSX GRID GENERATION
--------------------

GRIDX 1
-------
General Integration Accuracy     IntAcc      ... 3.816
Radial Grid Type                 RadialGrid  ... OptM3 with GC (2021)
Angular Grid (max. ang.)         AngularGrid ... 1 (Lebedev-50)
Angular grid pruning method      GridPruning ... 4 (adaptive)
Weight generation scheme         WeightScheme... Becke
Basis function cutoff            BFCut       ... 1.0000e-10
Integration weight cutoff        WCut        ... 1.0000e-14
Angular grids for H and He will be reduced by one unit
Partially contracted basis set               ... on
Rotationally invariant grid construction     ... off

Total number of grid points                  ...    21999
Total number of batches                      ...      364
Average number of points per batch           ...       60
Average number of grid points per atom       ...      687
UseSFitting                                  ... on

GRIDX 2
-------
General Integration Accuracy     IntAcc      ... 4.020
Radial Grid Type                 RadialGrid  ... OptM3 with GC (2021)
Angular Grid (max. ang.)         AngularGrid ... 2 (Lebedev-110)
Angular grid pruning method      GridPruning ... 4 (adaptive)
Weight generation scheme         WeightScheme... Becke
Basis function cutoff            BFCut       ... 1.0000e-10
Integration weight cutoff        WCut        ... 1.0000e-14
Angular grids for H and He will be reduced by one unit
Partially contracted basis set               ... on
Rotationally invariant grid construction     ... off

Total number of grid points                  ...    53826
Total number of batches                      ...      862
Average number of points per batch           ...       62
Average number of grid points per atom       ...     1682
UseSFitting                                  ... on

GRIDX 3
-------
General Integration Accuracy     IntAcc      ... 4.338
Radial Grid Type                 RadialGrid  ... OptM3 with GC (2021)
Angular Grid (max. ang.)         AngularGrid ... 3 (Lebedev-194)
Angular grid pruning method      GridPruning ... 4 (adaptive)
Weight generation scheme         WeightScheme... Becke
Basis function cutoff            BFCut       ... 1.0000e-10
Integration weight cutoff        WCut        ... 1.0000e-14
Angular grids for H and He will be reduced by one unit
Partially contracted basis set               ... on
Rotationally invariant grid construction     ... off

Total number of grid points                  ...   116382
Total number of batches                      ...     1837
Average number of points per batch           ...       63
Average number of grid points per atom       ...     3637
UseSFitting                                  ... on

Time for X-Grid setup             =    1.937 sec

--------------
SCF ITERATIONS
--------------
ITER       Energy         Delta-E        Max-DP      RMS-DP      [F,P]     Damp
               ***  Starting incremental Fock matrix formation  ***
  0   -918.7307834540   0.000000000000 0.61579167  0.00716000  0.0000419 0.7000
                 **** Energy Check signals convergence ****

               *****************************************************
               *                     SUCCESS                       *
               *           SCF CONVERGED AFTER   1 CYCLES          *
               *****************************************************


------------------------------------------------------------------------------
                          SCF STABILITY ANALYSIS                              
------------------------------------------------------------------------------


---------------
TD-DFT XC SETUP
---------------

DFT calculation                         ... on
Name of the grid file                   ... Stone-Wales_defect_loss_four.grid.tmp
Exchange functional (SCF)               ... B88
Exchange functional (TD-DFT)            ... B88
   X-Alpha parameter    XAlpha (SCF)    ...  0.666667
   X-Alpha parameter    XAlpha (TD-DFT) ...  0.666667
   Becke's b parameter  XBeta (SCF)     ...  0.004200
   Becke's b parameter  XBeta (TD-DFT)  ...  0.004200
Correlation functional (SCF)            ... LYP
Correlation functional (TD-DFT)         ... LYP
 LDA part of GGA corr.  LDAOpt (SCF)    ... VWN-5
 LDA part of GGA corr.  LDAOpt (TD-DFT) ... VWN-5
Hybrid DFT                              ... on
   Exchange mixing (SCF)                ...  0.200
   Exchange mixing (TD-DFT)             ...  0.200
   GGA exch. scaling(SCF)               ...  0.720
   GGA exch. scaling (TD-DFT)           ...  0.720
   GGA corr. scaling (SCF)              ...  0.810
   GGA corr. scaling (TD-DFT)           ...  0.810

Electron density on the grid   ... found on disk
Building xc-kernel on the grid ... done
                    *** TD-DFT CALCULATION INITIALIZED ***

                       ****Iteration    0****

   Memory handling for direct AO based CIS:
   Memory per vector needed      ...    19 MB
   Memory needed                 ...   118 MB
   Memory available              ...  5000 MB
   Number of vectors per batch   ...   253
   Number of batches             ...     1
   Time for densities:     0.154
   Time for XC-Integration:    13.840
   Time for K (COSX):   109.703
   Time for RI-J (Direct):     3.534
   Time for Sigma-Completion:     0.125
   Lowest Energy          :     0.046321905464
   Maximum Energy change  :     0.055532393862 (vector 2)
   Maximum residual norm  :     0.001887169990

                       ****Iteration    1****
   Time for densities:     0.082
   Time for XC-Integration:     8.277
   Time for K (COSX):    97.191
   Time for RI-J (Direct):     2.139
   Time for Sigma-Completion:     0.047
   Lowest Energy          :     0.041281939515
   Maximum Energy change  :     0.005676421615 (vector 1)
   Maximum residual norm  :     0.002606191294

                       ****Iteration    2****
   Time for densities:     0.088
   Time for XC-Integration:     8.529
   Time for K (COSX):    97.269
   Time for RI-J (Direct):     2.198
   Time for Sigma-Completion:     0.051
   Lowest Energy          :     0.041168638443
   Maximum Energy change  :     0.003149538909 (vector 1)
   Maximum residual norm  :     0.000830848429

                       ****Iteration    3****
   Time for densities:     0.081
   Time for XC-Integration:     8.619
   Time for K (COSX):    97.463
   Time for RI-J (Direct):     2.136
   Time for Sigma-Completion:     0.057
   Lowest Energy          :     0.041151787342
   Maximum Energy change  :     0.002239127032 (vector 1)
   Maximum residual norm  :     0.001972198182

                       ****Iteration    4****
   Time for densities:     0.076
   Time for XC-Integration:     9.274
   Time for K (COSX):    98.767
   Time for RI-J (Direct):     2.236
   Time for Sigma-Completion:     0.074
   Lowest Energy          :     0.036942223058
   Maximum Energy change  :     0.004209564284 (vector 0)
   Maximum residual norm  :     0.001696423547

                       ****Iteration    5****
   Time for densities:     0.084
   Time for XC-Integration:     9.475
   Time for K (COSX):    99.151
   Time for RI-J (Direct):     2.189
   Time for Sigma-Completion:     0.057
   Lowest Energy          :     0.035593857093
   Maximum Energy change  :     0.001348365966 (vector 0)
   Maximum residual norm  :     0.000428343459

                       ****Iteration    6****
   Time for densities:     0.087
   Time for XC-Integration:     9.207
   Time for K (COSX):    97.059
   Time for RI-J (Direct):     2.158
   Time for Sigma-Completion:     0.069
   Lowest Energy          :     0.034683588448
   Maximum Energy change  :     0.000910268644 (vector 0)
   Maximum residual norm  :     0.000610414957

                       ****Iteration    7****
   Time for densities:     0.084
   Time for XC-Integration:     9.394
   Time for K (COSX):    97.257
   Time for RI-J (Direct):     2.205
   Time for Sigma-Completion:     0.072
   Lowest Energy          :     0.033864774362
   Maximum Energy change  :     0.000818814086 (vector 0)
   Maximum residual norm  :     0.000219005471

                       ****Iteration    8****
   Time for densities:     0.058
   Time for XC-Integration:     9.680
   Time for K (COSX):    97.080
   Time for RI-J (Direct):     2.179
   Time for Sigma-Completion:     0.051
   Lowest Energy          :     0.033495601107
   Maximum Energy change  :     0.000369173255 (vector 0)
   Maximum residual norm  :     0.000267406617

                       ****Iteration    9****
   Time for densities:     0.066
   Time for XC-Integration:     9.502
   Time for K (COSX):    97.159
   Time for RI-J (Direct):     2.173
   Time for Sigma-Completion:     0.046
   Lowest Energy          :     0.032695579450
   Maximum Energy change  :     0.000892031634 (vector 2)
   Maximum residual norm  :     0.003888806045

                       ****Iteration   10****
   Time for densities:     0.049
   Time for XC-Integration:     6.424
   Time for K (COSX):    93.666
   Time for RI-J (Direct):     1.694
   Time for Sigma-Completion:     0.039
   Lowest Energy          :     0.031703905146
   Maximum Energy change  :     0.006665399104 (vector 2)
   Maximum residual norm  :     0.002151195761

                       ****Iteration   11****
   Time for densities:     0.050
   Time for XC-Integration:     6.337
   Time for K (COSX):    93.363
   Time for RI-J (Direct):     1.593
   Time for Sigma-Completion:     0.048
   Lowest Energy          :     0.030845968037
   Maximum Energy change  :     0.002199211418 (vector 2)
   Maximum residual norm  :     0.001073708959

                       ****Iteration   12****
   Time for densities:     0.056
   Time for XC-Integration:     6.460
   Time for K (COSX):    93.673
   Time for RI-J (Direct):     1.640
   Time for Sigma-Completion:     0.045
   Lowest Energy          :     0.029961207910
   Maximum Energy change  :     0.001700289310 (vector 1)
   Maximum residual norm  :     0.000564943371

                       ****Iteration   13****
   Time for densities:     0.050
   Time for XC-Integration:     6.347
   Time for K (COSX):    93.484
   Time for RI-J (Direct):     1.625
   Time for Sigma-Completion:     0.034
   Lowest Energy          :     0.029175075206
   Maximum Energy change  :     0.001068140645 (vector 1)
   Maximum residual norm  :     0.000857404807

                       ****Iteration   14****
   Time for densities:     0.055
   Time for XC-Integration:     6.339
   Time for K (COSX):    93.595
   Time for RI-J (Direct):     1.618
   Time for Sigma-Completion:     0.038
   Lowest Energy          :     0.027143557661
   Maximum Energy change  :     0.002222570610 (vector 1)
   Maximum residual norm  :     0.001370251387

                       ****Iteration   15****
   Time for densities:     0.051
   Time for XC-Integration:     6.595
   Time for K (COSX):    93.328
   Time for RI-J (Direct):     1.662
   Time for Sigma-Completion:     0.045
   Lowest Energy          :     0.024980666272
   Maximum Energy change  :     0.002162891389 (vector 0)
   Maximum residual norm  :     0.000574664747

                       ****Iteration   16****
   Time for densities:     0.057
   Time for XC-Integration:     6.553
   Time for K (COSX):    93.380
   Time for RI-J (Direct):     1.657
   Time for Sigma-Completion:     0.041
   Lowest Energy          :     0.024308806771
   Maximum Energy change  :     0.000671859501 (vector 0)
   Maximum residual norm  :     0.000198841977

                       ****Iteration   17****
   Time for densities:     0.074
   Time for XC-Integration:     9.645
   Time for K (COSX):    97.188
   Time for RI-J (Direct):     2.159
   Time for Sigma-Completion:     0.051
   Lowest Energy          :     0.024117636087
   Maximum Energy change  :     0.000229377788 (vector 2)
   Maximum residual norm  :     0.000040508975

                       ****Iteration   18****
   Time for densities:     0.071
   Time for XC-Integration:     9.623
   Time for K (COSX):    97.019
   Time for RI-J (Direct):     2.229
   Time for Sigma-Completion:     0.051
   Lowest Energy          :     0.024091468536
   Maximum Energy change  :     0.000044684781 (vector 2)
   Maximum residual norm  :     0.000008126008

      *** CONVERGENCE OF RESIDUAL NORM REACHED ***

----------------------------- 
SCF STABILITY ANALYSIS RESULT 
----------------------------- 

UHF/UKS->UHF/UKS - singlet - internal

   Root    Eigenvalue (au) 
     0       0.024091 
     1       0.032777 
     2       0.040670 

Stability Analysis indicates a stable HF/KS wave function.


Total time for performing the stability analysis:  2044.462sec

Old exchange energy                            =    -25.454499552 Eh
New exchange energy                            =    -25.454535501 Eh
Exchange energy change after final integration =     -0.000035949 Eh
Total energy after final integration           =   -918.730819105 Eh
Final COS-X integration done in                =    26.259 sec

----------------
TOTAL SCF ENERGY
----------------

Total Energy       :         -918.73081910 Eh          -24999.93656 eV

Components:
Nuclear Repulsion  :         1747.44242720 Eh           47550.32586 eV
Electronic Energy  :        -2666.17324631 Eh          -72550.26242 eV
One Electron Energy:        -4711.27576619 Eh         -128200.33118 eV
Two Electron Energy:         2045.10251988 Eh           55650.06876 eV
Max COSX asymmetry :            0.00001072 Eh               0.00029 eV

Virial components:
Potential Energy   :        -1834.20484674 Eh          -49911.25132 eV
Kinetic Energy     :          915.47402763 Eh           24911.31476 eV
Virial Ratio       :            2.00355749


DFT components:
N(Alpha)           :       76.000111762959 electrons
N(Beta)            :       76.000111764866 electrons
N(Total)           :      152.000223527825 electrons
E(X)               :     -101.226740821487 Eh       
E(C)               :       -6.119193580654 Eh       
E(XC)              :     -107.345934402141 Eh       
DFET-embed. en.    :        0.000000000000 Eh       

---------------
SCF CONVERGENCE
---------------

  Last Energy change         ...    2.9869e-07  Tolerance :   1.0000e-06
  Last MAX-Density change    ...    2.3436e-01  Tolerance :   1.0000e-05
  Last RMS-Density change    ...    2.4097e-03  Tolerance :   1.0000e-06
  Last DIIS Error            ...    2.9130e-05  Tolerance :   1.0000e-06

             **** THE GBW FILE WAS UPDATED (Stone-Wales_defect_loss_four.gbw) ****
             **** DENSITY Stone-Wales_defect_loss_four.scfp WAS UPDATED ****
             **** ENERGY FILE WAS UPDATED (Stone-Wales_defect_loss_four.en.tmp) ****
----------------------
UHF SPIN CONTAMINATION
----------------------

Warning: in a DFT calculation there is little theoretical justification to 
         calculate <S**2> as in Hartree-Fock theory. We will do it anyways
         but you should keep in mind that the values have only limited relevance

Expectation value of <S**2>     :     0.300482
Ideal value S*(S+1) for S=0.0   :     0.000000
Deviation                       :     0.300482

             **** THE GBW FILE WAS UPDATED (Stone-Wales_defect_loss_four.gbw) ****
             **** DENSITY Stone-Wales_defect_loss_four.scfp WAS UPDATED ****
----------------
ORBITAL ENERGIES
----------------
                 SPIN UP ORBITALS
  NO   OCC          E(Eh)            E(eV) 
   0   1.0000     -10.234877      -278.5052 
   1   1.0000     -10.226427      -278.2752 
   2   1.0000     -10.225688      -278.2551 
   3   1.0000     -10.223901      -278.2065 
   4   1.0000     -10.218625      -278.0629 
   5   1.0000     -10.217324      -278.0275 
   6   1.0000     -10.213761      -277.9306 
   7   1.0000     -10.203889      -277.6619 
   8   1.0000     -10.203449      -277.6500 
   9   1.0000     -10.202021      -277.6111 
  10   1.0000     -10.201686      -277.6020 
  11   1.0000     -10.200507      -277.5699 
  12   1.0000     -10.198696      -277.5206 
  13   1.0000     -10.198086      -277.5040 
  14   1.0000     -10.197543      -277.4893 
  15   1.0000     -10.196543      -277.4620 
  16   1.0000     -10.195868      -277.4437 
  17   1.0000     -10.194954      -277.4188 
  18   1.0000     -10.192241      -277.3450 
  19   1.0000     -10.191018      -277.3117 
  20   1.0000     -10.190543      -277.2988 
  21   1.0000     -10.190387      -277.2945 
  22   1.0000     -10.185312      -277.1564 
  23   1.0000     -10.184918      -277.1457 
  24   1.0000      -0.935354       -25.4523 
  25   1.0000      -0.905849       -24.6494 
  26   1.0000      -0.881279       -23.9808 
  27   1.0000      -0.856038       -23.2940 
  28   1.0000      -0.835669       -22.7397 
  29   1.0000      -0.829320       -22.5669 
  30   1.0000      -0.798034       -21.7156 
  31   1.0000      -0.780070       -21.2268 
  32   1.0000      -0.769267       -20.9328 
  33   1.0000      -0.742070       -20.1927 
  34   1.0000      -0.734749       -19.9935 
  35   1.0000      -0.718487       -19.5510 
  36   1.0000      -0.678425       -18.4609 
  37   1.0000      -0.659475       -17.9452 
  38   1.0000      -0.649450       -17.6724 
  39   1.0000      -0.632034       -17.1985 
  40   1.0000      -0.601408       -16.3651 
  41   1.0000      -0.583214       -15.8700 
  42   1.0000      -0.578033       -15.7291 
  43   1.0000      -0.553833       -15.0706 
  44   1.0000      -0.535946       -14.5838 
  45   1.0000      -0.531911       -14.4740 
  46   1.0000      -0.517901       -14.0928 
  47   1.0000      -0.507460       -13.8087 
  48   1.0000      -0.485781       -13.2188 
  49   1.0000      -0.471715       -12.8360 
  50   1.0000      -0.470448       -12.8015 
  51   1.0000      -0.462959       -12.5978 
  52   1.0000      -0.451521       -12.2865 
  53   1.0000      -0.449441       -12.2299 
  54   1.0000      -0.436025       -11.8648 
  55   1.0000      -0.426739       -11.6121 
  56   1.0000      -0.418197       -11.3797 
  57   1.0000      -0.412810       -11.2331 
  58   1.0000      -0.399586       -10.8733 
  59   1.0000      -0.396582       -10.7916 
  60   1.0000      -0.394369       -10.7313 
  61   1.0000      -0.385758       -10.4970 
  62   1.0000      -0.382211       -10.4005 
  63   1.0000      -0.361336        -9.8325 
  64   1.0000      -0.361162        -9.8277 
  65   1.0000      -0.346774        -9.4362 
  66   1.0000      -0.343601        -9.3499 
  67   1.0000      -0.342080        -9.3085 
  68   1.0000      -0.292870        -7.9694 
  69   1.0000      -0.288570        -7.8524 
  70   1.0000      -0.282897        -7.6980 
  71   1.0000      -0.280402        -7.6301 
  72   1.0000      -0.276132        -7.5139 
  73   1.0000      -0.246021        -6.6946 
  74   1.0000      -0.236095        -6.4245 
  75   1.0000      -0.199312        -5.4235 
  76   0.0000      -0.114580        -3.1179 
  77   0.0000      -0.105812        -2.8793 
  78   0.0000      -0.088481        -2.4077 
  79   0.0000      -0.082301        -2.2395 
  80   0.0000      -0.072898        -1.9836 
  81   0.0000      -0.027565        -0.7501 
  82   0.0000      -0.000881        -0.0240 
  83   0.0000       0.005351         0.1456 
  84   0.0000       0.009313         0.2534 
  85   0.0000       0.012070         0.3284 
  86   0.0000       0.015381         0.4185 
  87   0.0000       0.022106         0.6015 
  88   0.0000       0.026793         0.7291 
  89   0.0000       0.033454         0.9103 
  90   0.0000       0.042757         1.1635 
  91   0.0000       0.045426         1.2361 
  92   0.0000       0.046116         1.2549 
  93   0.0000       0.048270         1.3135 
  94   0.0000       0.049609         1.3499 
  95   0.0000       0.057381         1.5614 
  96   0.0000       0.064484         1.7547 
  97   0.0000       0.064903         1.7661 
  98   0.0000       0.067648         1.8408 
  99   0.0000       0.069580         1.8934 
 100   0.0000       0.073030         1.9873 
 101   0.0000       0.074151         2.0178 
 102   0.0000       0.088304         2.4029 
 103   0.0000       0.088716         2.4141 
 104   0.0000       0.092414         2.5147 
 105   0.0000       0.095444         2.5972 
 106   0.0000       0.095713         2.6045 
 107   0.0000       0.099330         2.7029 
 108   0.0000       0.100558         2.7363 
 109   0.0000       0.112807         3.0696 
 110   0.0000       0.113222         3.0809 
 111   0.0000       0.116333         3.1656 
 112   0.0000       0.126160         3.4330 
 113   0.0000       0.126259         3.4357 
 114   0.0000       0.133282         3.6268 
 115   0.0000       0.133800         3.6409 
 116   0.0000       0.137926         3.7531 
 117   0.0000       0.138884         3.7792 
 118   0.0000       0.139452         3.7947 
 119   0.0000       0.141604         3.8532 
 120   0.0000       0.147161         4.0044 
 121   0.0000       0.149245         4.0612 
 122   0.0000       0.157815         4.2944 
 123   0.0000       0.158482         4.3125 
 124   0.0000       0.160626         4.3709 
 125   0.0000       0.166798         4.5388 
 126   0.0000       0.167823         4.5667 
 127   0.0000       0.169165         4.6032 
 128   0.0000       0.172829         4.7029 
 129   0.0000       0.176609         4.8058 
 130   0.0000       0.179307         4.8792 
 131   0.0000       0.181078         4.9274 
 132   0.0000       0.182890         4.9767 
 133   0.0000       0.184977         5.0335 
 134   0.0000       0.188849         5.1389 
 135   0.0000       0.191298         5.2055 
 136   0.0000       0.192779         5.2458 
 137   0.0000       0.196173         5.3381 
 138   0.0000       0.197805         5.3825 
 139   0.0000       0.199992         5.4421 
 140   0.0000       0.202810         5.5187 
 141   0.0000       0.205187         5.5834 
 142   0.0000       0.206907         5.6302 
 143   0.0000       0.207391         5.6434 
 144   0.0000       0.212765         5.7896 
 145   0.0000       0.221747         6.0341 
 146   0.0000       0.223121         6.0714 
 147   0.0000       0.225252         6.1294 
 148   0.0000       0.230267         6.2659 
 149   0.0000       0.231786         6.3072 
 150   0.0000       0.233057         6.3418 
 151   0.0000       0.234548         6.3824 
 152   0.0000       0.235837         6.4174 
 153   0.0000       0.241542         6.5727 
 154   0.0000       0.246561         6.7093 
 155   0.0000       0.248593         6.7645 
 156   0.0000       0.248856         6.7717 
 157   0.0000       0.251710         6.8494 
 158   0.0000       0.256874         6.9899 
 159   0.0000       0.260735         7.0950 
 160   0.0000       0.262948         7.1552 
 161   0.0000       0.266155         7.2425 
 162   0.0000       0.266453         7.2505 
 163   0.0000       0.273754         7.4492 
 164   0.0000       0.276159         7.5147 
 165   0.0000       0.279197         7.5973 
 166   0.0000       0.280295         7.6272 
 167   0.0000       0.287436         7.8215 
 168   0.0000       0.290953         7.9172 
 169   0.0000       0.291402         7.9295 
 170   0.0000       0.295510         8.0412 
 171   0.0000       0.297280         8.0894 
 172   0.0000       0.301884         8.2147 
 173   0.0000       0.305054         8.3009 
 174   0.0000       0.314882         8.5684 
 175   0.0000       0.317587         8.6420 
 176   0.0000       0.322754         8.7826 
 177   0.0000       0.328298         8.9334 
 178   0.0000       0.334217         9.0945 
 179   0.0000       0.337242         9.1768 
 180   0.0000       0.339388         9.2352 
 181   0.0000       0.344361         9.3706 
 182   0.0000       0.352611         9.5950 
 183   0.0000       0.355383         9.6705 
 184   0.0000       0.363794         9.8993 
 185   0.0000       0.368144        10.0177 
 186   0.0000       0.378825        10.3084 
 187   0.0000       0.381647        10.3851 
 188   0.0000       0.385924        10.5015 
 189   0.0000       0.393985        10.7209 
 190   0.0000       0.396670        10.7939 
 191   0.0000       0.407010        11.0753 
 192   0.0000       0.408001        11.1023 
 193   0.0000       0.411140        11.1877 
 194   0.0000       0.429859        11.6971 
 195   0.0000       0.435780        11.8582 
 196   0.0000       0.438864        11.9421 
 197   0.0000       0.444985        12.1087 
 198   0.0000       0.453030        12.3276 
 199   0.0000       0.463836        12.6216 
 200   0.0000       0.473950        12.8968 
 201   0.0000       0.483075        13.1451 
 202   0.0000       0.490967        13.3599 
 203   0.0000       0.494180        13.4473 
 204   0.0000       0.502604        13.6766 
 205   0.0000       0.505882        13.7658 
 206   0.0000       0.506837        13.7917 
 207   0.0000       0.513342        13.9687 
 208   0.0000       0.521479        14.1902 
 209   0.0000       0.524677        14.2772 
 210   0.0000       0.527930        14.3657 
 211   0.0000       0.529336        14.4040 
 212   0.0000       0.534563        14.5462 
 213   0.0000       0.542028        14.7493 
 214   0.0000       0.547812        14.9067 
 215   0.0000       0.552567        15.0361 
 216   0.0000       0.555840        15.1252 
 217   0.0000       0.557308        15.1651 
 218   0.0000       0.562737        15.3129 
 219   0.0000       0.569003        15.4833 
 220   0.0000       0.574804        15.6412 
 221   0.0000       0.578031        15.7290 
 222   0.0000       0.582473        15.8499 
 223   0.0000       0.587329        15.9820 
 224   0.0000       0.587495        15.9865 
 225   0.0000       0.588604        16.0167 
 226   0.0000       0.598120        16.2757 
 227   0.0000       0.602738        16.4013 
 228   0.0000       0.606050        16.4915 
 229   0.0000       0.610134        16.6026 
 230   0.0000       0.614020        16.7083 
 231   0.0000       0.616027        16.7630 
 232   0.0000       0.624384        16.9904 
 233   0.0000       0.624816        17.0021 
 234   0.0000       0.629645        17.1335 
 235   0.0000       0.631805        17.1923 
 236   0.0000       0.640380        17.4256 
 237   0.0000       0.643847        17.5200 
 238   0.0000       0.646988        17.6054 
 239   0.0000       0.656814        17.8728 
 240   0.0000       0.658230        17.9113 
 241   0.0000       0.662052        18.0154 
 242   0.0000       0.668080        18.1794 
 243   0.0000       0.669143        18.2083 
 244   0.0000       0.669329        18.2134 
 245   0.0000       0.671333        18.2679 
 246   0.0000       0.686404        18.6780 
 247   0.0000       0.696892        18.9634 
 248   0.0000       0.699105        19.0236 
 249   0.0000       0.702032        19.1033 
 250   0.0000       0.704610        19.1734 
 251   0.0000       0.711288        19.3551 
 252   0.0000       0.711947        19.3731 
 253   0.0000       0.714120        19.4322 
 254   0.0000       0.716666        19.5015 
 255   0.0000       0.720569        19.6077 
 256   0.0000       0.724724        19.7208 
 257   0.0000       0.733245        19.9526 
 258   0.0000       0.737989        20.0817 
 259   0.0000       0.740711        20.1558 
 260   0.0000       0.743595        20.2342 
 261   0.0000       0.755717        20.5641 
 262   0.0000       0.761159        20.7122 
 263   0.0000       0.768327        20.9072 
 264   0.0000       0.780846        21.2479 
 265   0.0000       0.782565        21.2947 
 266   0.0000       0.792435        21.5633 
 267   0.0000       0.818163        22.2633 
 268   0.0000       0.827015        22.5042 
 269   0.0000       0.851586        23.1728 
 270   0.0000       0.862441        23.4682 
 271   0.0000       0.864783        23.5319 
 272   0.0000       0.878351        23.9011 
 273   0.0000       0.887413        24.1477 
 274   0.0000       0.893288        24.3076 
 275   0.0000       0.894666        24.3451 
 276   0.0000       0.905702        24.6454 
 277   0.0000       0.909275        24.7426 
 278   0.0000       0.916361        24.9354 
 279   0.0000       0.929842        25.3023 
 280   0.0000       0.932233        25.3673 
 281   0.0000       0.940480        25.5918 
 282   0.0000       0.943140        25.6641 
 283   0.0000       0.945490        25.7281 
 284   0.0000       0.950598        25.8671 
 285   0.0000       0.951415        25.8893 
 286   0.0000       0.955882        26.0109 
 287   0.0000       0.959971        26.1221 
 288   0.0000       0.962431        26.1891 
 289   0.0000       0.975355        26.5408 
 290   0.0000       0.980070        26.6690 
 291   0.0000       0.982440        26.7336 
 292   0.0000       0.983166        26.7533 
 293   0.0000       0.994736        27.0682 
 294   0.0000       0.996506        27.1163 
 295   0.0000       1.001271        27.2460 
 296   0.0000       1.007891        27.4261 
 297   0.0000       1.015003        27.6196 
 298   0.0000       1.018477        27.7142 
 299   0.0000       1.020273        27.7630 
 300   0.0000       1.028006        27.9735 
 301   0.0000       1.035365        28.1737 
 302   0.0000       1.044589        28.4247 
 303   0.0000       1.049987        28.5716 
 304   0.0000       1.054230        28.6871 
 305   0.0000       1.064009        28.9532 
 306   0.0000       1.066012        29.0077 
 307   0.0000       1.073297        29.2059 
 308   0.0000       1.081042        29.4167 
 309   0.0000       1.097065        29.8526 
 310   0.0000       1.099099        29.9080 
 311   0.0000       1.106463        30.1084 
 312   0.0000       1.118936        30.4478 
 313   0.0000       1.120185        30.4818 
 314   0.0000       1.136611        30.9288 
 315   0.0000       1.145488        31.1703 
 316   0.0000       1.160263        31.5724 
 317   0.0000       1.166586        31.7444 
 318   0.0000       1.168315        31.7915 
 319   0.0000       1.171969        31.8909 
 320   0.0000       1.185236        32.2519 
 321   0.0000       1.193877        32.4871 
 322   0.0000       1.213906        33.0321 
 323   0.0000       1.230062        33.4717 
 324   0.0000       1.233814        33.5738 
 325   0.0000       1.242543        33.8113 
 326   0.0000       1.246602        33.9218 
 327   0.0000       1.251593        34.0576 
 328   0.0000       1.262614        34.3575 
 329   0.0000       1.284902        34.9640 
 330   0.0000       1.308032        35.5934 
 331   0.0000       1.330718        36.2107 
 332   0.0000       1.341556        36.5056 
 333   0.0000       1.371033        37.3077 
 334   0.0000       1.387380        37.7525 
 335   0.0000       1.401183        38.1281 
 336   0.0000       1.409510        38.3547 
 337   0.0000       1.443521        39.2802 
 338   0.0000       1.454691        39.5842 
 339   0.0000       1.459900        39.7259 
 340   0.0000       1.464755        39.8580 
 341   0.0000       1.466392        39.9025 
 342   0.0000       1.481464        40.3127 
 343   0.0000       1.485477        40.4219 
 344   0.0000       1.499611        40.8065 
 345   0.0000       1.505557        40.9683 
 346   0.0000       1.507695        41.0265 
 347   0.0000       1.528795        41.6006 
 348   0.0000       1.534928        41.7675 
 349   0.0000       1.535746        41.7898 
 350   0.0000       1.550921        42.2027 
 351   0.0000       1.560151        42.4539 
 352   0.0000       1.560289        42.4576 
 353   0.0000       1.573487        42.8167 
 354   0.0000       1.576030        42.8860 
 355   0.0000       1.590745        43.2864 
 356   0.0000       1.597248        43.4633 
 357   0.0000       1.617155        44.0050 
 358   0.0000       1.627716        44.2924 
 359   0.0000       1.629796        44.3490 
 360   0.0000       1.653769        45.0013 
 361   0.0000       1.660614        45.1876 
 362   0.0000       1.681344        45.7517 
 363   0.0000       1.688030        45.9336 
 364   0.0000       1.699323        46.2409 
 365   0.0000       1.704511        46.3821 
 366   0.0000       1.705159        46.3997 
 367   0.0000       1.722188        46.8631 
 368   0.0000       1.723470        46.8980 
 369   0.0000       1.730032        47.0766 
 370   0.0000       1.738965        47.3196 
 371   0.0000       1.751257        47.6541 
 372   0.0000       1.764567        48.0163 
 373   0.0000       1.786670        48.6178 
 374   0.0000       1.786725        48.6193 
 375   0.0000       1.791064        48.7373 
 376   0.0000       1.797239        48.9054 
 377   0.0000       1.809801        49.2472 
 378   0.0000       1.820712        49.5441 
 379   0.0000       1.824883        49.6576 
 380   0.0000       1.828507        49.7562 
 381   0.0000       1.849553        50.3289 
 382   0.0000       1.860148        50.6172 
 383   0.0000       1.861287        50.6482 
 384   0.0000       1.869977        50.8847 
 385   0.0000       1.881084        51.1869 
 386   0.0000       1.886929        51.3459 
 387   0.0000       1.896280        51.6004 
 388   0.0000       1.904726        51.8302 
 389   0.0000       1.911381        52.0113 
 390   0.0000       1.918291        52.1994 
 391   0.0000       1.923396        52.3383 
 392   0.0000       1.926536        52.4237 
 393   0.0000       1.948606        53.0243 
 394   0.0000       1.952891        53.1409 
 395   0.0000       1.971950        53.6595 
 396   0.0000       1.977203        53.8024 
 397   0.0000       1.991452        54.1902 
 398   0.0000       1.997137        54.3449 
 399   0.0000       2.002097        54.4798 
 400   0.0000       2.011589        54.7381 
 401   0.0000       2.015570        54.8464 
 402   0.0000       2.016937        54.8836 
 403   0.0000       2.024220        55.0818 
 404   0.0000       2.039516        55.4980 
 405   0.0000       2.049927        55.7813 
 406   0.0000       2.061679        56.1011 
 407   0.0000       2.067633        56.2631 
 408   0.0000       2.079666        56.5906 
 409   0.0000       2.097094        57.0648 
 410   0.0000       2.107076        57.3364 
 411   0.0000       2.126055        57.8529 
 412   0.0000       2.128606        57.9223 
 413   0.0000       2.135267        58.1036 
 414   0.0000       2.145685        58.3871 
 415   0.0000       2.156408        58.6788 
 416   0.0000       2.169797        59.0432 
 417   0.0000       2.181052        59.3494 
 418   0.0000       2.201535        59.9068 
 419   0.0000       2.212194        60.1969 
 420   0.0000       2.232751        60.7562 
 421   0.0000       2.257666        61.4342 
 422   0.0000       2.267487        61.7015 
 423   0.0000       2.290476        62.3270 
 424   0.0000       2.294005        62.4230 
 425   0.0000       2.303804        62.6897 
 426   0.0000       2.321579        63.1734 
 427   0.0000       2.331931        63.4551 
 428   0.0000       2.333642        63.5016 
 429   0.0000       2.362380        64.2836 
 430   0.0000       2.381642        64.8078 
 431   0.0000       2.406825        65.4930 
 432   0.0000       2.425196        65.9929 
 433   0.0000       2.448485        66.6267 
 434   0.0000       2.464591        67.0649 
 435   0.0000       2.467003        67.1306 
 436   0.0000       2.480754        67.5047 
 437   0.0000       2.498856        67.9973 
 438   0.0000       2.501203        68.0612 
 439   0.0000       2.545881        69.2769 
 440   0.0000       2.553206        69.4763 
 441   0.0000       2.578557        70.1661 
 442   0.0000       2.588536        70.4376 
 443   0.0000       2.591857        70.5280 
 444   0.0000       2.598066        70.6970 
 445   0.0000       2.637049        71.7577 
 446   0.0000       2.639231        71.8171 
 447   0.0000       2.642187        71.8976 
 448   0.0000       2.660789        72.4037 
 449   0.0000       2.683496        73.0216 
 450   0.0000       2.691352        73.2354 
 451   0.0000       2.695883        73.3587 
 452   0.0000       2.700950        73.4966 
 453   0.0000       2.707059        73.6628 
 454   0.0000       2.709782        73.7369 
 455   0.0000       2.723493        74.1100 
 456   0.0000       2.726744        74.1985 
 457   0.0000       2.735421        74.4346 
 458   0.0000       2.736659        74.4683 
 459   0.0000       2.754837        74.9629 
 460   0.0000       2.761139        75.1344 
 461   0.0000       2.764863        75.2357 
 462   0.0000       2.765619        75.2563 
 463   0.0000       2.782340        75.7113 
 464   0.0000       2.792614        75.9909 
 465   0.0000       2.795311        76.0643 
 466   0.0000       2.812203        76.5239 
 467   0.0000       2.824759        76.8656 
 468   0.0000       2.826662        76.9174 
 469   0.0000       2.828691        76.9726 
 470   0.0000       2.841676        77.3259 
 471   0.0000       2.855365        77.6984 
 472   0.0000       2.861750        77.8722 
 473   0.0000       2.866682        78.0064 
 474   0.0000       2.877433        78.2989 
 475   0.0000       2.889748        78.6340 
 476   0.0000       2.917668        79.3938 
 477   0.0000       2.929231        79.7084 
 478   0.0000       2.958680        80.5098 
 479   0.0000       2.959134        80.5221 
 480   0.0000       2.978844        81.0585 
 481   0.0000       2.992710        81.4358 
 482   0.0000       2.997708        81.5718 
 483   0.0000       2.999986        81.6338 
 484   0.0000       3.009943        81.9047 
 485   0.0000       3.032431        82.5166 
 486   0.0000       3.035821        82.6089 
 487   0.0000       3.048922        82.9654 
 488   0.0000       3.055062        83.1325 
 489   0.0000       3.087054        84.0030 
 490   0.0000       3.098385        84.3113 
 491   0.0000       3.117805        84.8398 
 492   0.0000       3.151897        85.7675 
 493   0.0000       3.158830        85.9561 
 494   0.0000       3.178895        86.5021 
 495   0.0000       3.216320        87.5205 
 496   0.0000       3.228179        87.8432 
 497   0.0000       3.244093        88.2763 
 498   0.0000       3.277312        89.1802 
 499   0.0000       3.286958        89.4427 
 500   0.0000       3.304093        89.9090 
 501   0.0000       3.312008        90.1243 
 502   0.0000       3.355825        91.3166 
 503   0.0000       3.370202        91.7079 
 504   0.0000       3.380323        91.9833 
 505   0.0000       3.386969        92.1641 
 506   0.0000       3.395750        92.4030 
 507   0.0000       3.412293        92.8532 
 508   0.0000       3.441890        93.6586 
 509   0.0000       3.456635        94.0598 
 510   0.0000       3.462713        94.2252 
 511   0.0000       3.500959        95.2659 
 512   0.0000       3.510114        95.5150 
 513   0.0000       3.523101        95.8684 
 514   0.0000       3.543564        96.4253 
 515   0.0000       3.571243        97.1785 
 516   0.0000       3.585021        97.5534 
 517   0.0000       3.605848        98.1201 
 518   0.0000       3.645722        99.2051 
 519   0.0000       3.656892        99.5091 
 520   0.0000       3.679153       100.1148 
 521   0.0000       3.782197       102.9188 
 522   0.0000       3.800546       103.4181 
 523   0.0000       3.804809       103.5341 
 524   0.0000       3.816046       103.8399 
 525   0.0000       4.013518       109.2134 
 526   0.0000       4.041698       109.9802 
 527   0.0000       4.058417       110.4351 
 528   0.0000       4.071555       110.7927 
 529   0.0000       4.076671       110.9319 
 530   0.0000       4.143182       112.7417 
 531   0.0000       4.219729       114.8247 
 532   0.0000       4.270330       116.2016 
 533   0.0000       4.384164       119.2992 
 534   0.0000       4.476673       121.8165 
 535   0.0000       4.587459       124.8311 
 536   0.0000       4.721705       128.4841 
 537   0.0000       4.782678       130.1433 
 538   0.0000       4.809204       130.8651 
 539   0.0000       4.850235       131.9816 
 540   0.0000       4.866433       132.4224 
 541   0.0000       4.883665       132.8913 
 542   0.0000      23.287913       633.6963 
 543   0.0000      23.491483       639.2357 
 544   0.0000      23.607001       642.3792 
 545   0.0000      23.722372       645.5186 
 546   0.0000      23.764302       646.6595 
 547   0.0000      23.792618       647.4300 
 548   0.0000      23.843062       648.8027 
 549   0.0000      23.884996       649.9438 
 550   0.0000      23.915859       650.7836 
 551   0.0000      23.962569       652.0547 
 552   0.0000      23.979823       652.5242 
 553   0.0000      23.992108       652.8584 
 554   0.0000      24.008987       653.3177 
 555   0.0000      24.015348       653.4908 
 556   0.0000      24.045399       654.3086 
 557   0.0000      24.074840       655.1097 
 558   0.0000      24.107235       655.9912 
 559   0.0000      24.124366       656.4574 
 560   0.0000      24.145747       657.0392 
 561   0.0000      24.165069       657.5650 
 562   0.0000      24.179877       657.9679 
 563   0.0000      24.191603       658.2870 
 564   0.0000      24.553103       668.1239 
 565   0.0000      24.647572       670.6945 
 566   0.0000       0.000000         0.0000 
 567   0.0000       0.000000         0.0000 
 568   0.0000       0.000000         0.0000 
 569   0.0000       0.000000         0.0000 
 570   0.0000       0.000000         0.0000 
 571   0.0000       0.000000         0.0000 
 572   0.0000       0.000000         0.0000 
 573   0.0000       0.000000         0.0000 
 574   0.0000       0.000000         0.0000 
 575   0.0000       0.000000         0.0000 

                 SPIN DOWN ORBITALS
  NO   OCC          E(Eh)            E(eV) 
   0   1.0000     -10.235069      -278.5104 
   1   1.0000     -10.226434      -278.2754 
   2   1.0000     -10.225680      -278.2549 
   3   1.0000     -10.223757      -278.2026 
   4   1.0000     -10.218002      -278.0460 
   5   1.0000     -10.217949      -278.0445 
   6   1.0000     -10.213609      -277.9264 
   7   1.0000     -10.204171      -277.6696 
   8   1.0000     -10.203253      -277.6446 
   9   1.0000     -10.202132      -277.6141 
  10   1.0000     -10.201423      -277.5948 
  11   1.0000     -10.200409      -277.5672 
  12   1.0000     -10.198760      -277.5224 
  13   1.0000     -10.198010      -277.5019 
  14   1.0000     -10.197703      -277.4936 
  15   1.0000     -10.196654      -277.4651 
  16   1.0000     -10.196004      -277.4474 
  17   1.0000     -10.194286      -277.4006 
  18   1.0000     -10.191829      -277.3338 
  19   1.0000     -10.190941      -277.3096 
  20   1.0000     -10.190884      -277.3081 
  21   1.0000     -10.190438      -277.2959 
  22   1.0000     -10.185989      -277.1749 
  23   1.0000     -10.184885      -277.1448 
  24   1.0000      -0.935345       -25.4520 
  25   1.0000      -0.905801       -24.6481 
  26   1.0000      -0.881305       -23.9815 
  27   1.0000      -0.856006       -23.2931 
  28   1.0000      -0.835703       -22.7406 
  29   1.0000      -0.829267       -22.5655 
  30   1.0000      -0.798091       -21.7172 
  31   1.0000      -0.780279       -21.2325 
  32   1.0000      -0.768992       -20.9253 
  33   1.0000      -0.742035       -20.1918 
  34   1.0000      -0.734726       -19.9929 
  35   1.0000      -0.718610       -19.5544 
  36   1.0000      -0.678301       -18.4575 
  37   1.0000      -0.659829       -17.9549 
  38   1.0000      -0.649292       -17.6681 
  39   1.0000      -0.631998       -17.1975 
[...]
 761   71118.9    140.6     -0.00253   0.23684  -0.11443  -0.00016
 762   71176.1    140.5      0.00015   0.13021  -0.20697  -0.00022
 763   71263.8    140.3      0.00896   0.00003   0.00043  -0.34699
 764   71286.2    140.3     -0.00118  -0.11021  -0.10122  -0.00021
 765   71301.3    140.2     -0.00057   0.18719   0.14870   0.00021
 766   71330.3    140.2     -0.00046  -0.00355  -0.00557  -0.00004
 767   71358.2    140.1      0.09289   0.05264  -0.05821   0.00179
 768   71358.7    140.1     -0.09091   0.00074  -0.00065  -0.13309
 769   71398.8    140.1      0.00726   0.00021  -0.00011   0.11092
 770   71400.9    140.1     -0.01365   0.07618  -0.04695  -0.00034
 771   71404.2    140.0      0.00663   0.01814   0.11944  -0.00000
 772   71426.9    140.0     -0.00593  -0.07327  -0.09272  -0.00023
 773   71430.4    140.0      0.00344  -0.00033  -0.00052   0.03293
 774   71439.1    140.0     -0.00004   0.00001   0.00005  -0.03216
 775   71479.9    139.9      0.00137   0.00405  -0.04877  -0.00007
 776   71505.5    139.8      0.00337   0.04144  -0.09500  -0.00010
 777   71578.1    139.7      0.00464   0.00013  -0.00011   0.01385
 778   71578.9    139.7     -0.00704   0.05440  -0.04594  -0.00005
 779   71635.0    139.6     -0.38333   0.05324  -0.15789   0.00141
 780   71635.7    139.6      0.40170   0.00170  -0.00500  -0.04390
 781   71640.9    139.6     -0.01518   0.00011  -0.00016  -0.08673
 782   71691.0    139.5      0.00044  -0.04300   0.02263   0.00002
 783   71731.1    139.4     -0.00038   0.00003   0.00017  -0.19540
 784   71741.2    139.4     -0.00016  -0.00001  -0.00005   0.06110
 785   71778.1    139.3      0.00087  -0.00002  -0.00007   0.07367
 786   71868.0    139.1      0.11614   0.00127  -0.00011  -0.17613
 787   71872.6    139.1     -0.11137   0.23910  -0.05149   0.00092
 788   71935.1    139.0     -0.00032   0.00002   0.00007  -0.07600
 789   71945.0    139.0      0.00005   0.00843   0.00306   0.00001
 790   71974.2    138.9      0.00249  -0.00004  -0.00002   0.01164
 791   72018.9    138.9      0.00043  -0.00001  -0.00010   0.10015
 792   72041.4    138.8     -0.00077   0.00004  -0.00005   0.03968
 793   72064.6    138.8      0.00145   0.09716   0.00482   0.00001
 794   72074.9    138.7     -0.00166   0.00005  -0.00001   0.00823
 795   72122.6    138.7      0.00151   0.09922  -0.08313  -0.00012
 796   72139.7    138.6     -0.00350  -0.07896   0.06238   0.00007
 797   72149.9    138.6      0.00467  -0.00006   0.00007  -0.00881
 798   72192.1    138.5     -0.00853  -0.00007   0.00005  -0.02901
 799   72231.1    138.4     -0.00019   0.01639   0.00723   0.00004
 800   72235.7    138.4      0.00015   0.00003   0.00004  -0.01935
 801   72271.0    138.4      0.00001  -0.02260   0.01293   0.00002
 802   72306.8    138.3     -0.00004   0.00000   0.00008  -0.08208
 803   72385.8    138.1     -0.00965  -0.00006   0.00024  -0.18251
 804   72392.9    138.1      0.00659   0.02850  -0.05599  -0.00020
 805   72429.3    138.1      0.00207   0.00000  -0.00017   0.18320
 806   72448.1    138.0      0.00004  -0.00003   0.00014  -0.10729
 807   72458.4    138.0      0.00118  -0.26813   0.14876   0.00016
 808   72471.1    138.0     -0.00038   0.02846  -0.01140  -0.00000
 809   72495.8    137.9     -0.00064   0.00002   0.00005  -0.04640
 810   72503.3    137.9      0.00087  -0.00692  -0.03354  -0.00008
 811   72568.7    137.8     -0.00063  -0.00819   0.05358   0.00004
 812   72603.5    137.7      0.00011   0.00001   0.00001  -0.00263
 813   72619.3    137.7      0.00032  -0.03339   0.00496   0.00000
 814   72656.2    137.6      0.00021   0.01609  -0.01295  -0.00001
 815   72669.7    137.6     -0.00018  -0.00515   0.02921   0.00000
 816   72687.6    137.6      0.00111  -0.04822   0.03848   0.00005
 817   72726.4    137.5      0.00011   0.03241  -0.02853  -0.00002
 818   72743.3    137.5      0.00130  -0.00004   0.00008  -0.12406
 819   72759.6    137.4     -0.00056  -0.20811  -0.02552   0.00001
 820   72799.6    137.4     -0.00059   0.00001  -0.00002   0.00709
 821   72805.0    137.4      0.00219   0.16532   0.00467   0.00002
 822   72843.7    137.3     -0.00032   0.10006   0.10677   0.00005
 823   72893.0    137.2      0.00429  -0.00004   0.00033  -0.25655
 824   72923.7    137.1     -0.00236   0.10125  -0.02829   0.00004
 825   72945.0    137.1      0.00025  -0.07761   0.03427   0.00005
 826   72958.9    137.1     -0.00324  -0.00022   0.00048   0.00159
 827   72962.4    137.1      0.00560  -0.11509   0.22196   0.00025
 828   72983.6    137.0      0.00430  -0.00000  -0.00010   0.00288
 829   73001.3    137.0     -0.01251   0.10794  -0.31059  -0.00034
 830   73029.2    136.9     -0.00010   0.01723  -0.04442  -0.00004
 831   73101.4    136.8     -0.00005  -0.02242   0.00300   0.00002
 832   73128.4    136.7     -0.00176  -0.18266   0.15473   0.00016
 833   73177.0    136.7     -0.00112   0.10924  -0.03703  -0.00004
 834   73250.4    136.5     -0.00024   0.05641  -0.09207  -0.00010
 835   73260.2    136.5      0.00123  -0.03200   0.07406   0.00010
 836   73284.5    136.5      0.00227  -0.00656   0.03744   0.00016
 837   73287.7    136.4     -0.00043   0.00001  -0.00005   0.02949
 838   73299.7    136.4     -0.00222  -0.00002   0.00013  -0.08321
 839   73344.5    136.3     -0.00015  -0.03272   0.10774   0.00008
 840   73359.9    136.3      0.00173  -0.00000  -0.00007   0.09292
 841   73390.1    136.3     -0.00002   0.00014   0.00136  -0.00000
 842   73398.9    136.2      0.00013  -0.00568   0.03991   0.00003
 843   73407.5    136.2      0.00044  -0.06319   0.04021   0.00004
 844   73436.1    136.2      0.00013   0.01650   0.00169  -0.00001
 845   73444.2    136.2      0.00185   0.00004  -0.00002  -0.02012
 846   73499.9    136.1      0.00035  -0.00002  -0.00001   0.02695
 847   73524.7    136.0     -0.00027   0.02241   0.01639   0.00016
 848   73528.6    136.0     -0.00182   0.00002  -0.00017   0.09553
 849   73555.2    136.0     -0.00069   0.05703  -0.08887  -0.00009
 850   73591.5    135.9     -0.00054  -0.10242   0.13738   0.00015
 851   73620.8    135.8     -0.00107   0.04673  -0.08236  -0.00007
 852   73630.3    135.8     -0.00049  -0.13125   0.17036   0.00018
 853   73647.6    135.8      0.00086   0.00007  -0.00004  -0.01565
 854   73664.9    135.7     -0.00244   0.14248  -0.13666  -0.00012
 855   73694.3    135.7      0.00022  -0.04497   0.03958   0.00005
 856   73792.9    135.5     -0.00393   0.03677   0.18415   0.00014
 857   73839.6    135.4      0.00326  -0.00001  -0.00004   0.08906
 858   73867.5    135.4      0.00043  -0.00407   0.04850   0.00005
 859   73878.4    135.4     -0.00144   0.00003   0.00000   0.00697
 860   73895.4    135.3     -0.00234   0.00000  -0.00008   0.01786
 861   73920.0    135.3      0.00952  -0.01654   0.22577   0.00025
 862   73945.3    135.2      0.00936  -0.24829  -0.15593  -0.00018
 863   73990.0    135.2     -0.00609  -0.00004  -0.00005   0.02798
 864   74012.3    135.1     -0.00025  -0.00203  -0.01082  -0.00002
 865   74015.6    135.1     -0.00108   0.01430   0.05409   0.00008
 866   74090.9    135.0     -0.00617  -0.00003  -0.00002  -0.01816
 867   74123.6    134.9      0.00122   0.06047   0.03356   0.00001
 868   74158.6    134.8      0.00044   0.00002   0.00001  -0.00730
 869   74257.2    134.7      0.00002   0.01115  -0.02307  -0.00004
 870   74278.2    134.6      0.00139   0.00002  -0.00007   0.08378
 871   74309.2    134.6      0.00067  -0.00003   0.00002   0.00410
 872   74334.7    134.5     -0.00033   0.00000  -0.00000  -0.02069
 873   74411.2    134.4     -0.00168  -0.06178  -0.06542  -0.00010
 874   74498.2    134.2     -0.00014  -0.00002   0.00014  -0.18912
 875   74539.6    134.2      0.00017  -0.03802  -0.06340  -0.00004
 876   74548.0    134.1      0.00116   0.09351   0.09985   0.00009
 877   74573.2    134.1     -0.00016  -0.00003  -0.00021   0.19192
 878   74584.2    134.1     -0.00098  -0.01299  -0.00157   0.00016
 879   74624.9    134.0      0.00009  -0.00555   0.00603  -0.00000
 880   74704.6    133.9      0.00125   0.00005   0.00001   0.01893
 881   74710.2    133.9     -0.00203   0.09799   0.06803   0.00004
 882   74784.0    133.7     -0.00385   0.02795  -0.01189  -0.00002
 883   74788.3    133.7      0.00653  -0.00003   0.00007  -0.00532
 884   74794.8    133.7     -0.00327   0.02218   0.08440   0.00007
 885   74836.4    133.6     -0.00059  -0.04273  -0.05375  -0.00006
 886   74882.6    133.5      0.00031  -0.00002   0.00005  -0.03443
 887   74925.1    133.5     -0.00021   0.00003   0.00002  -0.00881
 888   74956.8    133.4      0.00013   0.00347   0.02782   0.00003
 889   75014.5    133.3      0.00028  -0.01968   0.05245   0.00006
 890   75044.3    133.3     -0.00045   0.08734   0.05674   0.00003
 891   75085.5    133.2      0.00018  -0.00004   0.00012  -0.13168
 892   75115.2    133.1     -0.00183  -0.02560   0.03208   0.00015
 893   75126.9    133.1     -0.00101   0.00006  -0.00023   0.12500
 894   75135.0    133.1      0.00091  -0.01559   0.09567   0.00017
 895   75156.6    133.1     -0.00079   0.00598   0.00577  -0.00004
 896   75176.1    133.0     -0.00120   0.00001   0.00004  -0.13445
 897   75221.4    132.9     -0.00096  -0.00002   0.00000   0.02566
 898   75295.9    132.8      0.00064  -0.01179   0.03723  -0.00002
 899   75301.7    132.8     -0.00088   0.00002  -0.00008   0.08982
 900   75329.1    132.8     -0.00014   0.00001  -0.00009   0.04846
 901   75345.5    132.7      0.00051   0.02096   0.08580   0.00007
 902   75373.1    132.7      0.00014  -0.03738   0.07005   0.00009
 903   75398.0    132.6      0.00014   0.00710  -0.02297  -0.00000
 904   75419.0    132.6      0.00012  -0.00001   0.00002  -0.00057
 905   75456.5    132.5      0.00055  -0.00001  -0.00005   0.04097
 906   75488.2    132.5      0.00091  -0.00002  -0.00008   0.07835
 907   75528.1    132.4      0.00110   0.00001   0.00013  -0.11464
 908   75562.0    132.3     -0.00146  -0.00002   0.00014  -0.09237
 909   75592.0    132.3      0.00052   0.03782  -0.06449  -0.00010
 910   75628.0    132.2     -0.00126   0.02727  -0.13179  -0.00011
 911   75661.0    132.2      0.00005   0.03084  -0.06583  -0.00007
 912   75668.0    132.2      0.00043   0.00003  -0.00001  -0.02354
 913   75706.6    132.1      0.00024   0.06654   0.04268   0.00004
 914   75767.4    132.0     -0.00008  -0.01508  -0.00859  -0.00001
 915   75795.0    131.9      0.00001  -0.00000  -0.00000  -0.00327
 916   75837.7    131.9      0.00026  -0.00002   0.00004  -0.03856
 917   75862.5    131.8     -0.00001  -0.00155  -0.00936  -0.00002
 918   75888.3    131.8      0.00051  -0.09732  -0.02173  -0.00003
 919   75900.1    131.8     -0.00081  -0.04490  -0.05002  -0.00002
 920   75919.2    131.7      0.00013   0.00001  -0.00001   0.01749
 921   75942.3    131.7     -0.00182  -0.00005  -0.00013   0.10162
 922   75974.4    131.6      0.00103   0.00000  -0.00016   0.14805
 923   76021.4    131.5     -0.00057   0.03813  -0.08106  -0.00012
 924   76041.3    131.5     -0.00119  -0.00001  -0.00007  -0.01374
 925   76045.1    131.5      0.00005   0.00878  -0.06892  -0.00005
 926   76078.4    131.4     -0.00314  -0.00003   0.00007  -0.07794
 927   76091.1    131.4      0.00052  -0.00002   0.00177   0.00003
 928   76135.9    131.3     -0.00020   0.00003   0.00001   0.01735
 929   76163.2    131.3     -0.09789  -0.00026  -0.00153  -0.07046
 930   76163.7    131.3      0.09728  -0.01230  -0.10013   0.00099
 931   76213.2    131.2     -0.00005   0.00003  -0.00003   0.03359
 932   76249.1    131.1     -0.00083  -0.00001   0.00007  -0.07932
 933   76282.1    131.1     -0.00036  -0.04852  -0.01395  -0.00002
 934   76336.2    131.0     -0.00041  -0.07752   0.03653   0.00001
 935   76360.0    131.0     -0.00020   0.00011   0.00008  -0.03751
 936   76396.1    130.9      0.00175   0.13067   0.08888   0.00015
 937   76435.0    130.8     -0.00994   0.00016   0.00031  -0.20317
 938   76450.5    130.8      0.00249   0.20416   0.13625   0.00023
 939   76501.6    130.7     -0.03445   0.00383   0.00185   0.04023
 940   76502.0    130.7      0.03369  -0.22732  -0.11142   0.00063
 941   76547.4    130.6      0.01115  -0.58163  -0.42293  -0.00059
 942   76580.7    130.6      0.01637  -0.00076  -0.00146   0.13303
 943   76585.3    130.6     -0.02455  -0.03332  -0.12990  -0.00088
 944   76608.5    130.5      0.00126   0.01383  -0.01833  -0.00009
 945   76643.3    130.5      0.00859  -0.00016  -0.00039   0.27702
 946   76675.1    130.4      0.00334  -0.00021  -0.00023   0.06725
 947   76680.2    130.4     -0.00039  -0.01826  -0.01907  -0.00002
 948   76707.9    130.4      0.01232  -0.00048  -0.00046   0.02327
 949   76714.6    130.4     -0.02359   0.20216   0.19659   0.00047
 950   76750.9    130.3     -0.00704   0.00042   0.00064  -0.04284
 951   76753.5    130.3     -0.00004  -0.15720  -0.20138  -0.00035
 952   76761.2    130.3     -0.00272  -0.08041  -0.09082  -0.00014
 953   76790.7    130.2     -0.00706   0.14976  -0.00690   0.00002
 954   76807.2    130.2     -0.00533   0.00018  -0.00012   0.07091
 955   76825.0    130.2      0.00466  -0.13892  -0.04142  -0.00001
 956   76838.9    130.1      0.00135   0.12227   0.03157   0.00006
 957   76865.6    130.1      0.00399  -0.00010  -0.00015   0.11701
 958   76890.1    130.1      0.02033   0.00006   0.00018  -0.26871
 959   76892.4    130.1     -0.00020   0.00857   0.02594   0.00001
 960   76912.1    130.0      0.00288  -0.06384  -0.10546   0.00019
 961   76959.6    129.9     -0.00080  -0.03928   0.03834  -0.00001
 962   77020.8    129.8      0.00002   0.00004  -0.00001   0.01592
 963   77081.8    129.7     -0.01974   0.00025   0.00018  -0.27680
 964   77107.0    129.7      0.02508   0.30000  -0.12513   0.00007
 965   77120.9    129.7     -0.00588   0.00040  -0.00021   0.07899
 966   77152.7    129.6     -0.00367  -0.00011   0.00009  -0.08751
 967   77227.5    129.5      0.00440  -0.24546  -0.05178  -0.00007
 968   77246.5    129.5     -0.00035   0.06505  -0.04635   0.00001
 969   77315.0    129.3     -0.00127   0.00004   0.00016  -0.17187
 970   77327.1    129.3     -0.00114  -0.10934   0.05699   0.00011
 971   77362.0    129.3      0.00063   0.00004  -0.00006   0.12100
 972   77391.0    129.2     -0.00939   0.00011   0.00005  -0.11801
 973   77398.4    129.2      0.00935   0.23930  -0.19758  -0.00011
 974   77434.7    129.1      0.00565  -0.00009   0.00020  -0.10769
 975   77447.8    129.1     -0.00118  -0.12105   0.21510   0.00023
 976   77455.5    129.1     -0.00014  -0.01760   0.09224   0.00009
 977   77479.1    129.1     -0.00002  -0.03192   0.02221   0.00004
 978   77490.0    129.0     -0.00148   0.00005  -0.00013  -0.04614
 979   77506.9    129.0      0.00337  -0.06614   0.20948   0.00016
 980   77560.5    128.9      0.00420   0.04460   0.07675   0.00020
 981   77561.2    128.9     -0.00236   0.00057   0.00095   0.01043
 982   77583.1    128.9     -0.00601   0.00003   0.00030  -0.33255
 983   77624.0    128.8      0.00153   0.08485   0.17084   0.00006
 984   77660.2    128.8      0.00013  -0.08602   0.05622   0.00006
 985   77677.9    128.7     -0.00053   0.01058   0.06971   0.00009
 986   77692.3    128.7      0.00004   0.04577   0.00269   0.00002
 987   77752.1    128.6     -0.00042  -0.07826   0.04585   0.00007
 988   77821.7    128.5      0.00032  -0.00003  -0.00005   0.01992
 989   77860.0    128.4     -0.00023   0.07078  -0.08795  -0.00007
 990   77862.8    128.4     -0.00025   0.00005  -0.00017  -0.03086
 991   77881.1    128.4     -0.00152   0.16006  -0.24557  -0.00022
 992   77929.3    128.3     -0.00035  -0.00014  -0.00010   0.00313
 993   77943.4    128.3      0.00005   0.24917   0.17967   0.00021
 994   78036.1    128.1     -0.00240  -0.11731   0.22712   0.00025
 995   78056.3    128.1      0.00026   0.00008  -0.00011   0.02691
 996   78067.9    128.1     -0.00122   0.00017  -0.00013   0.05493
 997   78089.2    128.1      0.00117  -0.00034   0.00047  -0.20947
 998   78122.7    128.0     -0.01075  -0.62180   0.24370   0.00048
 999   78188.9    127.9      0.01633  -0.13184   0.06249  -0.00071
 1000   78199.7    127.9     -0.00814   0.09332  -0.03443  -0.00080

Total run time:    33124.295 sec

           *** ORCA-CIS/TD-DFT FINISHED WITHOUT ERROR ***

Maximum memory used throughout the entire CIS-calculation: 3875.3 MB

-----------------------
CIS/TD-DFT TOTAL ENERGY
-----------------------

    E(SCF)  =   -918.730819105 Eh
    DE(CIS) =      0.045979846 Eh (Root  1)
    ----------------------------- ---------
    E(tot)  =   -918.684839258 Eh



-------------------------------------------------------------------------------
                          DFT DISPERSION CORRECTION                            
                                                                               
                                 DFTD4 V2.5                                    
-------------------------------------------------------------------------------
The B3LYP functional is recognized
Active option DFTDOPT                   ...         5   

Starting D4
-------------------------   ----------------
Dispersion correction           -0.097949005
-------------------------   ----------------


-------------------------   --------------------
FINAL SINGLE POINT ENERGY      -918.782788263723
-------------------------   --------------------


                            ***************************************
                            *     ORCA property calculations      *
                            ***************************************

                                    ---------------------
                                    Active property flags
                                    ---------------------
   (+) Dipole Moment


------------------------------------------------------------------------------
                       ORCA ELECTRIC PROPERTIES CALCULATION
------------------------------------------------------------------------------

Dipole Moment Calculation                       ... on
Quadrupole Moment Calculation                   ... off
Polarizability Calculation                      ... off
GBWName                                         ... Stone-Wales_defect_loss_four.gbw
Electron density                                ... Stone-Wales_defect_loss_four.scfp
The origin for moment calculation is the CENTER OF MASS  = ( 0.027530,  0.074248  0.014192)

-------------
DIPOLE MOMENT
-------------
                                X             Y             Z
Electronic contribution:     -3.62708      -6.57957      -0.00673
Nuclear contribution   :      4.00821       7.55833       0.00773
                        -----------------------------------------
Total Dipole Moment    :      0.38113       0.97876       0.00100
                        -----------------------------------------
Magnitude (a.u.)       :      1.05035
Magnitude (Debye)      :      2.66978



--------------------
Rotational spectrum 
--------------------
 
Rotational constants in cm-1:     0.013365     0.009678     0.005613 
Rotational constants in MHz :   400.680918   290.133593   168.281055 

 Dipole components along the rotational axes: 
x,y,z [a.u.] :     0.700833     0.782347    -0.000000 
x,y,z [Debye]:     1.781377     1.988568    -0.000000 

 

Timings for individual modules:

Sum of individual times         ...    35232.091 sec (= 587.202 min)
GTO integral calculation        ...        0.712 sec (=   0.012 min)   0.0 %
SCF iterations                  ...     2106.906 sec (=  35.115 min)   6.0 %
CIS module                      ...    33124.473 sec (= 552.075 min)  94.0 %
                             ****ORCA TERMINATED NORMALLY****
TOTAL RUN TIME: 0 days 9 hours 47 minutes 13 seconds 81 msec
