
                                 *****************
                                 * O   R   C   A *
                                 *****************

                                            #,                                       
                                            ###                                      
                                            ####                                     
                                            #####                                    
                                            ######                                   
                                           ########,                                 
                                     ,,################,,,,,                         
                               ,,#################################,,                 
                          ,,##########################################,,             
                       ,#########################################, ''#####,          
                    ,#############################################,,   '####,        
                  ,##################################################,,,,####,       
                ,###########''''           ''''###############################       
              ,#####''   ,,,,##########,,,,          '''####'''          '####       
            ,##' ,,,,###########################,,,                        '##       
           ' ,,###''''                  '''############,,,                           
         ,,##''                                '''############,,,,        ,,,,,,###''
      ,#''                                            '''#######################'''  
     '                                                          ''''####''''         
             ,#######,   #######,   ,#######,      ##                                
            ,#'     '#,  ##    ##  ,#'     '#,    #''#        ######   ,####,        
            ##       ##  ##   ,#'  ##            #'  '#       #        #'  '#        
            ##       ##  #######   ##           ,######,      #####,   #    #        
            '#,     ,#'  ##    ##  '#,     ,#' ,#      #,         ##   #,  ,#        
             '#######'   ##     ##  '#######'  #'      '#     #####' # '####'        



                  #######################################################
                  #                        -***-                        #
                  #          Department of theory and spectroscopy      #
                  #    Directorship and core code : Frank Neese         #
                  #        Max Planck Institute fuer Kohlenforschung    #
                  #                Kaiser Wilhelm Platz 1               #
                  #                 D-45470 Muelheim/Ruhr               #
                  #                      Germany                        #
                  #                                                     #
                  #                  All rights reserved                #
                  #                        -***-                        #
                  #######################################################



                         Program Version 5.0.4 -  RELEASE  -

 With contributions from (in alphabetic order):
   Daniel Aravena         : Magnetic Suceptibility
   Michael Atanasov       : Ab Initio Ligand Field Theory (pilot matlab implementation)
   Alexander A. Auer      : GIAO ZORA, VPT2 properties, NMR spectrum
   Ute Becker             : Parallelization
   Giovanni Bistoni       : ED, misc. LED, open-shell LED, HFLD
   Martin Brehm           : Molecular dynamics
   Dmytro Bykov           : SCF Hessian
   Vijay G. Chilkuri      : MRCI spin determinant printing, contributions to CSF-ICE
   Dipayan Datta          : RHF DLPNO-CCSD density
   Achintya Kumar Dutta   : EOM-CC, STEOM-CC
   Dmitry Ganyushin       : Spin-Orbit,Spin-Spin,Magnetic field MRCI
   Miquel Garcia          : C-PCM and meta-GGA Hessian, CC/C-PCM, Gaussian charge scheme
   Yang Guo               : DLPNO-NEVPT2, F12-NEVPT2, CIM, IAO-localization
   Andreas Hansen         : Spin unrestricted coupled pair/coupled cluster methods
   Benjamin Helmich-Paris : MC-RPA, TRAH-SCF, COSX integrals
   Lee Huntington         : MR-EOM, pCC
   Robert Izsak           : Overlap fitted RIJCOSX, COSX-SCS-MP3, EOM
   Marcus Kettner         : VPT2
   Christian Kollmar      : KDIIS, OOCD, Brueckner-CCSD(T), CCSD density, CASPT2, CASPT2-K
   Simone Kossmann        : Meta GGA functionals, TD-DFT gradient, OOMP2, MP2 Hessian
   Martin Krupicka        : Initial AUTO-CI
   Lucas Lang             : DCDCAS
   Marvin Lechner         : AUTO-CI (C++ implementation), FIC-MRCC
   Dagmar Lenk            : GEPOL surface, SMD
   Dimitrios Liakos       : Extrapolation schemes; Compound Job, initial MDCI parallelization
   Dimitrios Manganas     : Further ROCIS development; embedding schemes
   Dimitrios Pantazis     : SARC Basis sets
   Anastasios Papadopoulos: AUTO-CI, single reference methods and gradients
   Taras Petrenko         : DFT Hessian,TD-DFT gradient, ASA, ECA, R-Raman, ABS, FL, XAS/XES, NRVS
   Peter Pinski           : DLPNO-MP2, DLPNO-MP2 Gradient
   Christoph Reimann      : Effective Core Potentials
   Marius Retegan         : Local ZFS, SOC
   Christoph Riplinger    : Optimizer, TS searches, QM/MM, DLPNO-CCSD(T), (RO)-DLPNO pert. Triples
   Tobias Risthaus        : Range-separated hybrids, TD-DFT gradient, RPA, STAB
   Michael Roemelt        : Original ROCIS implementation
   Masaaki Saitow         : Open-shell DLPNO-CCSD energy and density
   Barbara Sandhoefer     : DKH picture change effects
   Avijit Sen             : IP-ROCIS
   Kantharuban Sivalingam : CASSCF convergence, NEVPT2, FIC-MRCI
   Bernardo de Souza      : ESD, SOC TD-DFT
   Georgi Stoychev        : AutoAux, RI-MP2 NMR, DLPNO-MP2 response
   Willem Van den Heuvel  : Paramagnetic NMR
   Boris Wezisla          : Elementary symmetry handling
   Frank Wennmohs         : Technical directorship


 We gratefully acknowledge several colleagues who have allowed us to
 interface, adapt or use parts of their codes:
   Stefan Grimme, W. Hujo, H. Kruse, P. Pracht,  : VdW corrections, initial TS optimization,
                  C. Bannwarth, S. Ehlert          DFT functionals, gCP, sTDA/sTD-DF
   Ed Valeev, F. Pavosevic, A. Kumar             : LibInt (2-el integral package), F12 methods
   Garnet Chan, S. Sharma, J. Yang, R. Olivares  : DMRG
   Ulf Ekstrom                                   : XCFun DFT Library
   Mihaly Kallay                                 : mrcc  (arbitrary order and MRCC methods)
   Jiri Pittner, Ondrej Demel                    : Mk-CCSD
   Frank Weinhold                                : gennbo (NPA and NBO analysis)
   Christopher J. Cramer and Donald G. Truhlar   : smd solvation model
   Lars Goerigk                                  : TD-DFT with DH, B97 family of functionals
   V. Asgeirsson, H. Jonsson                     : NEB implementation
   FAccTs GmbH                                   : IRC, NEB, NEB-TS, DLPNO-Multilevel, CI-OPT
                                                   MM, QMMM, 2- and 3-layer-ONIOM, Crystal-QMMM,
                                                   LR-CPCM, SF, NACMEs, symmetry and pop. for TD-DFT,
                                                   nearIR, NL-DFT gradient (VV10), updates on ESD,
                                                   ML-optimized integration grids
   S Lehtola, MJT Oliveira, MAL Marques          : LibXC Library
   Liviu Ungur et al                             : ANISO software


 Your calculation uses the libint2 library for the computation of 2-el integrals
 For citations please refer to: http://libint.valeyev.net

 Your ORCA version has been built with support for libXC version: 5.1.0
 For citations please refer to: https://tddft.org/programs/libxc/

 This ORCA versions uses:
   CBLAS   interface :  Fast vector & matrix operations
   LAPACKE interface :  Fast linear algebra routines
   Shared memory     :  Shared parallel matrices


XCFun DFT library Copyright 2009-2010 Ulf Ekstrom and contributors.
See http://admol.org/xcfun for more information.
This is free software; see the source code for copying conditions.
There is ABSOLUTELY NO WARRANTY; not even for MERCHANTABILITY or FITNESS FOR A PARTICULAR PURPOSE.
For details see the documentation.
Scientific users of this library should cite U. Ekstrom, L. Visscher, R. Bast, A. J. Thorvaldsen and K. Ruud;
J.Chem.Theor.Comp. 2010, DOI: 10.1021/ct100117s
XCFun Version 0.99 

================================================================================

----- Orbital basis set information -----
Your calculation utilizes the basis: def2-TZVP
   F. Weigend and R. Ahlrichs, Phys. Chem. Chem. Phys. 7, 3297 (2005).

----- AuxJ basis set information -----
Your calculation utilizes the auxiliary basis: def2/J
   F. Weigend, Phys. Chem. Chem. Phys. 8, 1057 (2006).

================================================================================
                                        WARNINGS
                       Please study these warnings very carefully!
================================================================================


WARNING: Geometry Optimization
  ===> : Switching off AutoStart
         For restart on a previous wavefunction, please use MOREAD

WARNING: Minnesota functionals are quite sensitive to the integration grid.
         see SE Wheeler, KN Houk, JCTC 2010, 6, 395,
             N Mardirossian, M Head-Gordon, JCTC 2016, 12, 4303.
         DEFGRID3 seems to be a minimum grid for reliable results with these functionals!
  ===> : Please increase the integration grid!


INFO   : the flag for use of the SHARK integral package has been found!

================================================================================
                                       INPUT FILE
================================================================================
NAME = five_six_two_one_ten_eleven_loss.inp
|  1> !M062x def2-tzvp opt freq tightscf
|  2> 
|  3> %freq
|  4> Temp 298.15,10,20,50,100,6000,8000,10000
|  5> end
|  6> 
|  7> %maxcore 4000
|  8> %pal
|  9> nprocs 3
| 10> end
| 11> 
| 12> 
| 13> %geom
| 14>   maxiter 2000
| 15>   end
| 16> 
| 17> * xyz 0 1
| 18>   C   2.46362427987247     -2.85071308273857     -0.00000218907091
| 19>   C   1.27719400513090     -3.52585311672403     -0.00003902795947
| 20>   C   0.05064934326115     -2.82613554872827     -0.00011828018749
| 21>   C   -1.19925193688694     -3.46606389677068     -0.00015928151260
| 22>   C   -2.39885271805658     -2.87183824187673     -0.00023283554738
| 23>   C   -2.43518053153382     -1.44080024452875     -0.00027277196623
| 24>   C   -3.66777674509120     -0.75191121775761     -0.00034379554662
| 25>   C   -3.71279324924276      0.61270000430768     -0.00038290810371
| 26>   C   -2.51870888891228      1.35470401292599     -0.00035207453727
| 27>   C   -2.33852946574720      2.75004532075493     -0.00038523866368
| 28>   C   -1.29227857579710      3.37936032270345     -0.00036005870682
| 29>   C   0.02296635156368      2.87874227377718     -0.00029143038758
| 30>   C   1.23211767469076      3.59211777508479     -0.00026457178571
| 31>   C   2.42594730830480      2.92563510630820     -0.00019121984698
| 32>   C   2.44893445959464      1.52227723319545     -0.00014614397662
| 33>   C   3.55845924150033      0.65762020353451     -0.00006795876215
| 34>   C   3.57066637986837     -0.56331157183495     -0.00002324805222
| 35>   C   2.47403114247392     -1.44414615823703     -0.00004617494814
| 36>   C   1.25557023434205     -0.69183165762109     -0.00012491861115
| 37>   C   1.23800989899349      0.75081893774134     -0.00017659337158
| 38>   C   -0.00359548669936      1.44369816359284     -0.00024809051538
| 39>   C   -1.24385874208543      0.70472511229996     -0.00028011039122
| 40>   C   -1.22033926149096     -0.71624674943317     -0.00023589301594
| 41>   C   0.03056944314590     -1.40895937212992     -0.00016349124726
| 42>   H   3.40592714860256     -3.38099880595279      0.00006084796734
| 43>   H   -3.32874432396662     -3.42840544994019     -0.00026138694326

| 44>   H   -4.58380467774224     -1.32989113444890     -0.00036599782084
| 45>   H   -4.65611295060898      1.14148914368134     -0.00043697075864
| 46>   H   1.19941226127863      4.67287271493635     -0.00030009286005
| 47>   H   3.36338199069149      3.46449630946482     -0.00016807868239
| 48> *
| 49> 
| 50>                          ****END OF INPUT****
================================================================================

                       *****************************
                       * Geometry Optimization Run *
                       *****************************

Geometry optimization settings:
Update method            Update   .... BFGS
Choice of coordinates    CoordSys .... Z-matrix Internals
Initial Hessian          InHess   .... Almoef's Model

Convergence Tolerances:
Energy Change            TolE     ....  5.0000e-06 Eh
Max. Gradient            TolMAXG  ....  3.0000e-04 Eh/bohr
RMS Gradient             TolRMSG  ....  1.0000e-04 Eh/bohr
Max. Displacement        TolMAXD  ....  4.0000e-03 bohr
RMS Displacement         TolRMSD  ....  2.0000e-03 bohr
Strict Convergence                ....  False
------------------------------------------------------------------------------
                        ORCA OPTIMIZATION COORDINATE SETUP
------------------------------------------------------------------------------

The optimization will be done in new redundant internal coordinates
Making redundant internal coordinates   ...  (new redundants) done
Evaluating the initial hessian          ...  (Almloef) done
Evaluating the coordinates              ...  done
Calculating the B-matrix                .... done
Calculating the G-matrix                .... done
Diagonalizing the G-matrix              .... done
The first mode is                       ....  110
The number of degrees of freedom        ....   84

    -----------------------------------------------------------------
                    Redundant Internal Coordinates


    -----------------------------------------------------------------
         Definition                    Initial Value    Approx d2E/dq
    -----------------------------------------------------------------
      1. B(C   1,C   0)                  1.3651         0.684706   
      2. B(C   2,C   1)                  1.4121         0.576083   
      3. B(C   3,C   2)                  1.4042         0.593052   
      4. B(C   4,C   3)                  1.3387         0.754341   
      5. B(C   5,C   4)                  1.4315         0.536450   
      6. B(C   6,C   5)                  1.4120         0.576199   
      7. B(C   7,C   6)                  1.3654         0.684007   
      8. B(C   8,C   7)                  1.4058         0.589461   
      9. B(C   9,C   8)                  1.4069         0.587129   
     10. B(C  10,C   9)                  1.2209         1.162716   
     11. B(C  11,C  10)                  1.4073         0.586328   
     12. B(C  12,C  11)                  1.4039         0.593680   
     13. B(C  13,C  12)                  1.3673         0.679207   
     14. B(C  14,C  13)                  1.4035         0.594465   
     15. B(C  15,C  14)                  1.4067         0.587716   
     16. B(C  16,C  15)                  1.2210         1.162462   
     17. B(C  17,C  16)                  1.4066         0.587868   
     18. B(C  17,C   0)                  1.4066         0.587822   
     19. B(C  18,C  17)                  1.4320         0.535464   
     20. B(C  19,C  18)                  1.4428         0.514716   
     21. B(C  19,C  14)                  1.4358         0.528065   
     22. B(C  20,C  19)                  1.4219         0.555801   
     23. B(C  20,C  11)                  1.4353         0.529031   
     24. B(C  21,C  20)                  1.4437         0.512894   
     25. B(C  21,C   8)                  1.4310         0.537466   
     26. B(C  22,C  21)                  1.4212         0.557204   
     27. B(C  22,C   5)                  1.4145         0.571014   
     28. B(C  23,C  22)                  1.4299         0.539604   
     29. B(C  23,C  18)                  1.4195         0.560685   
     30. B(C  23,C   2)                  1.4173         0.565137   
     31. B(H  24,C   0)                  1.0813         0.371840   
     32. B(H  25,C   4)                  1.0837         0.368494   
     33. B(H  26,C   6)                  1.0831         0.369305   
     34. B(H  27,C   7)                  1.0814         0.371631   
     35. B(H  28,C  12)                  1.0812         0.371864   
     36. B(H  29,C  13)                  1.0813         0.371829   
     37. A(C  17,C   0,H  24)          118.9449         0.351645   
     38. A(C   1,C   0,C  17)          120.0660         0.437675   
     39. A(C   1,C   0,H  24)          120.9890         0.360873   
     40. A(C   0,C   1,C   2)          120.6541         0.436087   
     41. A(C   1,C   2,C   3)          123.1845         0.424979   
     42. A(C   3,C   2,C  23)          116.2999         0.423524   
     43. A(C   1,C   2,C  23)          120.5156         0.421333   
     44. A(C   2,C   3,C   4)          126.5367         0.446119   
     45. A(C   5,C   4,H  25)          119.4476         0.345739   
     46. A(C   3,C   4,C   5)          117.8058         0.438102   
     47. A(C   3,C   4,H  25)          122.7466         0.366330   
     48. A(C   4,C   5,C  22)          119.3584         0.416781   
     49. A(C   4,C   5,C   6)          120.6547         0.417452   
     50. A(C   6,C   5,C  22)          119.9869         0.422127   
     51. A(C   5,C   6,H  26)          118.5491         0.350056   
     52. A(C   5,C   6,C   7)          121.0899         0.436023   
     53. A(C   7,C   6,H  26)          120.3610         0.360389   
     54. A(C   6,C   7,C   8)          119.9674         0.437815   
     55. A(C   8,C   7,H  27)          118.8699         0.351777   
     56. A(C   6,C   7,H  27)          121.1627         0.360775   
     57. A(C   9,C   8,C  21)          109.6568         0.418993   
     58. A(C   7,C   8,C   9)          129.2147         0.425963   
     59. A(C   7,C   8,C  21)          121.1285         0.419290   
     60. A(C   8,C   9,C  10)          128.3846         0.481967   
     61. A(C   9,C  10,C  11)          128.1351         0.481846   
     62. A(C  12,C  11,C  20)          121.6002         0.418641   
     63. A(C  10,C  11,C  20)          109.7778         0.417713   
     64. A(C  10,C  11,C  12)          128.6220         0.426403   
     65. A(C  11,C  12,H  28)          118.8064         0.352239   
     66. A(C  11,C  12,C  13)          120.2868         0.437822   
     67. A(C  13,C  12,H  28)          120.9068         0.360381   
     68. A(C  14,C  13,H  29)          118.9530         0.352312   
     69. A(C  12,C  13,H  29)          120.9352         0.360375   
     70. A(C  12,C  13,C  14)          120.1119         0.437926   
     71. A(C  13,C  14,C  15)          128.8679         0.426685   
     72. A(C  15,C  14,C  19)          109.5701         0.417752   
     73. A(C  13,C  14,C  19)          121.5621         0.418603   
     74. A(C  14,C  15,C  16)          128.5023         0.482036   
     75. A(C  15,C  16,C  17)          128.1991         0.482060   
     76. A(C  16,C  17,C  18)          109.5356         0.418809   
     77. A(C   0,C  17,C  18)          121.2685         0.418803   
     78. A(C   0,C  17,C  16)          129.1959         0.425847   
     79. A(C  17,C  18,C  19)          122.3898         0.409037   
     80. A(C  19,C  18,C  23)          119.6477         0.412388   
     81. A(C  17,C  18,C  23)          117.9624         0.415293   
     82. A(C  18,C  19,C  20)          119.8611         0.411748   
     83. A(C  14,C  19,C  20)          118.3358         0.413624   
     84. A(C  14,C  19,C  18)          121.8031         0.408030   
     85. A(C  11,C  20,C  19)          118.1034         0.413758   
     86. A(C  19,C  20,C  21)          120.0489         0.411489   
     87. A(C  11,C  20,C  21)          121.8477         0.407906   
     88. A(C  20,C  21,C  22)          119.8391         0.411673   
     89. A(C   8,C  21,C  22)          117.9629         0.415109   
     90. A(C   8,C  21,C  20)          122.1981         0.409050   
     91. A(C  21,C  22,C  23)          119.9245         0.415402   
     92. A(C   5,C  22,C  23)          120.2111         0.417216   
     93. A(C   5,C  22,C  21)          119.8644         0.419609   
     94. A(C  18,C  23,C  22)          120.6786         0.415863   
     95. A(C   2,C  23,C  22)          119.7880         0.416448   
     96. A(C   2,C  23,C  18)          119.5334         0.419301   
     97. D(C   2,C   1,C   0,C  17)     -0.0001         0.029800   
     98. D(C   2,C   1,C   0,H  24)    179.9999         0.029800   
     99. D(C   3,C   2,C   1,C   0)    180.0000         0.020686   
    100. D(C  23,C   2,C   1,C   0)      0.0001         0.020686   
    101. D(C   4,C   3,C   2,C  23)     -0.0002         0.021974   
    102. D(C   4,C   3,C   2,C   1)    179.9999         0.021974   
    103. D(C   5,C   4,C   3,C   2)     -0.0001         0.036764   
    104. D(H  25,C   4,C   3,C   2)    180.0000         0.036764   
    105. D(C  22,C   5,C   4,C   3)      0.0001         0.019656   
    106. D(C  22,C   5,C   4,H  25)   -180.0000         0.019656   
    107. D(C   6,C   5,C   4,H  25)      0.0002         0.019656   
    108. D(C   6,C   5,C   4,C   3)   -179.9997         0.019656   
    109. D(H  26,C   6,C   5,C  22)   -179.9997         0.022796   
    110. D(C   7,C   6,C   5,C  22)      0.0002         0.022796   
    111. D(H  26,C   6,C   5,C   4)      0.0001         0.022796   
    112. D(C   7,C   6,C   5,C   4)   -180.0000         0.022796   
    113. D(H  27,C   7,C   6,H  26)     -0.0000         0.032827   
    114. D(H  27,C   7,C   6,C   5)   -180.0000         0.032827   
    115. D(C   8,C   7,C   6,C   5)     -0.0000         0.032827   
    116. D(C   8,C   7,C   6,H  26)    179.9999         0.032827   
    117. D(C  21,C   8,C   7,H  27)    180.0000         0.023909   
    118. D(C  21,C   8,C   7,C   6)      0.0000         0.023909   
    119. D(C   9,C   8,C   7,H  27)     -0.0002         0.023909   
    120. D(C   9,C   8,C   7,C   6)    179.9999         0.023909   
    121. D(C  10,C   9,C   8,C  21)     -0.0000         0.021519   
    122. D(C  10,C   9,C   8,C   7)   -179.9999         0.021519   
    123. D(C  11,C  10,C   9,C   8)      0.0000         0.086136   
    124. D(C  20,C  11,C  10,C   9)     -0.0001         0.021458   
    125. D(C  12,C  11,C  10,C   9)    179.9999         0.021458   
    126. D(C  13,C  12,C  11,C  10)    179.9998         0.024270   
    127. D(C  13,C  12,C  11,C  20)     -0.0002         0.024270   
    128. D(H  28,C  12,C  11,C  20)    180.0000         0.024270   
    129. D(H  28,C  12,C  11,C  10)     -0.0001         0.024270   
    130. D(H  29,C  13,C  12,H  28)     -0.0001         0.032332   
    131. D(H  29,C  13,C  12,C  11)   -179.9999         0.032332   
    132. D(C  14,C  13,C  12,C  11)      0.0002         0.032332   
    133. D(C  14,C  13,C  12,H  28)   -180.0000         0.032332   
    134. D(C  19,C  14,C  13,H  29)   -179.9999         0.024338   
    135. D(C  19,C  14,C  13,C  12)      0.0001         0.024338   
    136. D(C  15,C  14,C  13,C  12)   -179.9999         0.024338   
    137. D(C  15,C  14,C  13,H  29)      0.0002         0.024338   
    138. D(C  16,C  15,C  14,C  13)    179.9996         0.021564   
    139. D(C  16,C  15,C  14,C  19)     -0.0003         0.021564   
    140. D(C  17,C  16,C  15,C  14)      0.0004         0.086092   
    141. D(C  18,C  17,C  16,C  15)     -0.0004         0.021575   
    142. D(C   0,C  17,C  16,C  15)    179.9997         0.021575   
    143. D(C  18,C  17,C   0,H  24)   -179.9998         0.023770   
    144. D(C  18,C  17,C   0,C   1)      0.0002         0.023770   
    145. D(C  16,C  17,C   0,H  24)      0.0002         0.023770   
    146. D(C  16,C  17,C   0,C   1)   -179.9998         0.023770   
    147. D(C  23,C  18,C  17,C  16)    179.9998         0.019582   
    148. D(C  23,C  18,C  17,C   0)     -0.0003         0.019582   
    149. D(C  19,C  18,C  17,C  16)      0.0003         0.019582   
    150. D(C  19,C  18,C  17,C   0)   -179.9998         0.019582   
    151. D(C  20,C  19,C  18,C  23)      0.0008         0.018061   
    152. D(C  20,C  19,C  18,C  17)   -179.9997         0.018061   
    153. D(C  14,C  19,C  18,C  23)   -179.9997         0.018061   
    154. D(C  14,C  19,C  18,C  17)     -0.0003         0.018061   
    155. D(C  20,C  19,C  14,C  15)    179.9997         0.019030   
    156. D(C  20,C  19,C  14,C  13)     -0.0003         0.019030   
    157. D(C  18,C  19,C  14,C  15)      0.0002         0.019030   
    158. D(C  18,C  19,C  14,C  13)   -179.9997         0.019030   
    159. D(C  19,C  20,C  11,C  10)    180.0000         0.019102   
    160. D(C  21,C  20,C  19,C  18)     -0.0005         0.021148   
    161. D(C  21,C  20,C  19,C  14)   -180.0000         0.021148   
    162. D(C  11,C  20,C  19,C  18)    179.9997         0.021148   
    163. D(C  11,C  20,C  19,C  14)      0.0002         0.021148   
    164. D(C  21,C  20,C  11,C  12)   -179.9998         0.019102   
    165. D(C  21,C  20,C  11,C  10)      0.0002         0.019102   
    166. D(C  19,C  20,C  11,C  12)     -0.0000         0.019102   
    167. D(C  22,C  21,C  20,C  19)      0.0002         0.017931   
    168. D(C  22,C  21,C  20,C  11)    180.0000         0.017931   
    169. D(C   8,C  21,C  20,C  19)   -180.0000         0.017931   
    170. D(C   8,C  21,C  20,C  11)     -0.0002         0.017931   
    171. D(C  22,C  21,C   8,C   9)    179.9999         0.019733   
    172. D(C  22,C  21,C   8,C   7)     -0.0002         0.019733   
    173. D(C  20,C  21,C   8,C   9)      0.0001         0.019733   
    174. D(C  20,C  21,C   8,C   7)    180.0000         0.019733   
    175. D(C  23,C  22,C  21,C  20)     -0.0002         0.021259   
    176. D(C  23,C  22,C  21,C   8)   -180.0000         0.021259   
    177. D(C   5,C  22,C  21,C  20)   -179.9997         0.021259   
    178. D(C   5,C  22,C  21,C   8)      0.0004         0.021259   
    179. D(C  23,C  22,C   5,C   6)    180.0000         0.022370   
    180. D(C  23,C  22,C   5,C   4)      0.0002         0.022370   
    181. D(C  21,C  22,C   5,C   6)     -0.0004         0.022370   
    182. D(C  21,C  22,C   5,C   4)    179.9998         0.022370   
    183. D(C  18,C  23,C  22,C  21)      0.0005         0.019895   
    184. D(C  18,C  23,C  22,C   5)   -180.0000         0.019895   
    185. D(C   2,C  23,C  22,C  21)    179.9999         0.019895   
    186. D(C   2,C  23,C  22,C   5)     -0.0005         0.019895   
    187. D(C  22,C  23,C  18,C  19)     -0.0008         0.021536   
    188. D(C  22,C  23,C  18,C  17)    179.9997         0.021536   
    189. D(C   2,C  23,C  18,C  19)    179.9997         0.021536   
    190. D(C   2,C  23,C  18,C  17)      0.0002         0.021536   
    191. D(C  22,C  23,C   2,C   3)      0.0005         0.021893   
    192. D(C  22,C  23,C   2,C   1)   -179.9996         0.021893   
    193. D(C  18,C  23,C   2,C   3)    179.9999         0.021893   
    194. D(C  18,C  23,C   2,C   1)     -0.0002         0.021893   
    -----------------------------------------------------------------

Number of atoms                         .... 30
Number of degrees of freedom            .... 194

         *************************************************************
         *                GEOMETRY OPTIMIZATION CYCLE   1            *
         *************************************************************
---------------------------------
CARTESIAN COORDINATES (ANGSTROEM)
---------------------------------
  C      2.463624   -2.850713   -0.000002
  C      1.277194   -3.525853   -0.000039
  C      0.050649   -2.826136   -0.000118
  C     -1.199252   -3.466064   -0.000159
  C     -2.398853   -2.871838   -0.000233
  C     -2.435181   -1.440800   -0.000273
  C     -3.667777   -0.751911   -0.000344
  C     -3.712793    0.612700   -0.000383
  C     -2.518709    1.354704   -0.000352
  C     -2.338529    2.750045   -0.000385
  C     -1.292279    3.379360   -0.000360
  C      0.022966    2.878742   -0.000291
  C      1.232118    3.592118   -0.000265
  C      2.425947    2.925635   -0.000191
  C      2.448934    1.522277   -0.000146
  C      3.558459    0.657620   -0.000068
  C      3.570666   -0.563312   -0.000023
  C      2.474031   -1.444146   -0.000046
  C      1.255570   -0.691832   -0.000125
  C      1.238010    0.750819   -0.000177
  C     -0.003595    1.443698   -0.000248
  C     -1.243859    0.704725   -0.000280
  C     -1.220339   -0.716247   -0.000236
  C      0.030569   -1.408959   -0.000163
  H      3.405927   -3.380999    0.000061
  H     -3.328744   -3.428405   -0.000261
  H     -4.583805   -1.329891   -0.000366
  H     -4.656113    1.141489   -0.000437
  H      1.199412    4.672873   -0.000300
  H      3.363382    3.464496   -0.000168

----------------------------
CARTESIAN COORDINATES (A.U.)
----------------------------
  NO LB      ZA    FRAG     MASS         X           Y           Z
   0 C     6.0000    0    12.011    4.655575   -5.387067   -0.000004
   1 C     6.0000    0    12.011    2.413547   -6.662897   -0.000074
   2 C     6.0000    0    12.011    0.095713   -5.340622   -0.000224
   3 C     6.0000    0    12.011   -2.266258   -6.549912   -0.000301
   4 C     6.0000    0    12.011   -4.533175   -5.426988   -0.000440
   5 C     6.0000    0    12.011   -4.601824   -2.722718   -0.000515
   6 C     6.0000    0    12.011   -6.931094   -1.420906   -0.000650
   7 C     6.0000    0    12.011   -7.016162    1.157835   -0.000724
   8 C     6.0000    0    12.011   -4.759670    2.560020   -0.000665
   9 C     6.0000    0    12.011   -4.419180    5.196833   -0.000728
  10 C     6.0000    0    12.011   -2.442053    6.386066   -0.000680
  11 C     6.0000    0    12.011    0.043400    5.440035   -0.000551
  12 C     6.0000    0    12.011    2.328365    6.788119   -0.000500
  13 C     6.0000    0    12.011    4.584376    5.528649   -0.000361
  14 C     6.0000    0    12.011    4.627815    2.876687   -0.000276
  15 C     6.0000    0    12.011    6.724513    1.242722   -0.000128
  16 C     6.0000    0    12.011    6.747582   -1.064505   -0.000044
  17 C     6.0000    0    12.011    4.675241   -2.729041   -0.000087
  18 C     6.0000    0    12.011    2.372684   -1.307372   -0.000236
  19 C     6.0000    0    12.011    2.339500    1.418842   -0.000334
  20 C     6.0000    0    12.011   -0.006794    2.728194   -0.000469
  21 C     6.0000    0    12.011   -2.350552    1.331737   -0.000529
  22 C     6.0000    0    12.011   -2.306107   -1.353510   -0.000446
  23 C     6.0000    0    12.011    0.057768   -2.662547   -0.000309
  24 H     1.0000    0     1.008    6.436270   -6.389162    0.000115
  25 H     1.0000    0     1.008   -6.290415   -6.478747   -0.000494
  26 H     1.0000    0     1.008   -8.662135   -2.513130   -0.000692
  27 H     1.0000    0     1.008   -8.798778    2.157102   -0.000826
  28 H     1.0000    0     1.008    2.266561    8.830450   -0.000567
  29 H     1.0000    0     1.008    6.355871    6.546949   -0.000318

--------------------------------
INTERNAL COORDINATES (ANGSTROEM)
--------------------------------
 C      0   0   0     0.000000000000     0.00000000     0.00000000
 C      1   0   0     1.365075405855     0.00000000     0.00000000
 C      2   1   0     1.412096487073   120.65405474     0.00000000
 C      3   2   1     1.404194253807   123.18448403   179.99999548
 C      4   3   2     1.338710636593   126.53667483   179.99993029
 C      5   4   3     1.431499026015   117.80582306     0.00000000
 C      6   5   4     1.412041614800   120.65468373   180.00031337
 C      7   6   5     1.365353534643   121.08992386   180.00002878
 C      8   7   6     1.405847576853   119.96739963     0.00000000
 C      9   8   7     1.406926434099   129.21466480   179.99985058
 C     10   9   8     1.220933371250   128.38455854   180.00014667
 C     11  10   9     1.407297997785   128.13510071     0.00000000
 C     12  11  10     1.403905811943   128.62204290   179.99986207
 C     13  12  11     1.367270400197   120.28679399   179.99978107
 C     14  13  12     1.403546127202   120.11186410     0.00000000
 C     15  14  13     1.406654551309   128.86785381   180.00012098
 C     16  15  14     1.220992799460   128.50226321   179.99964904
 C     17  16  15     1.406583951644   128.19913909     0.00000000
 C     18  17  16     1.432000034456   109.53559171     0.00000000
 C     15  14  13     1.435787656312   121.56205315     0.00000000
 C     20  15  14     1.421852861765   118.33577083     0.00000000
 C      9   8   7     1.430984092610   121.12854471     0.00000000
 C      6   5   4     1.414502414284   119.35844359     0.00000000
 C      3   2   1     1.417318425743   120.51560303     0.00000000
 H      1   2   3     1.081266687102   120.98903654   179.99985380
 H      5   4   3     1.083727574923   122.74660524   179.99997955
 H      7   6   5     1.083128781811   118.54907638     0.00000000
 H      8   7   6     1.081420369619   121.16274943   180.00002077
 H     13  12  11     1.081249686863   118.80643386     0.00000000
 H     14  13  12     1.081274794187   120.93518279   180.00011322

---------------------------
INTERNAL COORDINATES (A.U.)
---------------------------
 C      0   0   0     0.000000000000     0.00000000     0.00000000
 C      1   0   0     2.579618669217     0.00000000     0.00000000
 C      2   1   0     2.668475635240   120.65405474     0.00000000
 C      3   2   1     2.653542578522   123.18448403   179.99999548
 C      4   3   2     2.529796475728   126.53667483   179.99993029
 C      5   4   3     2.705141120143   117.80582306     0.00000000
 C      6   5   4     2.668371941671   120.65468373   180.00031337
 C      7   6   5     2.580144256457   121.08992386   180.00002878
 C      8   7   6     2.656666906288   119.96739963     0.00000000
 C      9   8   7     2.658705651021   129.21466480   179.99985058
 C     10   9   8     2.307229699428   128.38455854   180.00014667
 C     11  10   9     2.659407804629   128.13510071     0.00000000
 C     12  11  10     2.652997502393   128.62204290   179.99986207
 C     13  12  11     2.583766607389   120.28679399   179.99978107
 C     14  13  12     2.652317796738   120.11186410     0.00000000
 C     15  14  13     2.658191867008   128.86785381   180.00012098
 C     16  15  14     2.307342002469   128.50226321   179.99964904
 C     17  16  15     2.658058452976   128.19913909     0.00000000
 C     18  17  16     2.706087888888   109.53559171     0.00000000
 C     15  14  13     2.713245456895   121.56205315     0.00000000
 C     20  15  14     2.686912511468   118.33577083     0.00000000
 C      9   8   7     2.704168037030   121.12854471     0.00000000
 C      6   5   4     2.673022178767   119.35844359     0.00000000
 C      3   2   1     2.678343669215   120.51560303     0.00000000
 H      1   2   3     2.043297916354   120.98903654   179.99985380
 H      5   4   3     2.047948320383   122.74660524   179.99997955
 H      7   6   5     2.046816765391   118.54907638     0.00000000
 H      8   7   6     2.043588334225   121.16274943   180.00002077
 H     13  12  11     2.043265790560   118.80643386     0.00000000
 H     14  13  12     2.043313236526   120.93518279   180.00011322

---------------------
BASIS SET INFORMATION
---------------------
There are 2 groups of distinct atoms

 Group   1 Type C   : 11s6p2d1f contracted to 5s3p2d1f pattern {62111/411/11/1}
 Group   2 Type H   : 5s1p contracted to 3s1p pattern {311/1}

Atom   0C    basis set group =>   1
Atom   1C    basis set group =>   1
Atom   2C    basis set group =>   1
Atom   3C    basis set group =>   1
Atom   4C    basis set group =>   1
Atom   5C    basis set group =>   1
Atom   6C    basis set group =>   1
Atom   7C    basis set group =>   1
Atom   8C    basis set group =>   1
Atom   9C    basis set group =>   1
Atom  10C    basis set group =>   1
Atom  11C    basis set group =>   1
Atom  12C    basis set group =>   1
Atom  13C    basis set group =>   1
Atom  14C    basis set group =>   1
Atom  15C    basis set group =>   1
Atom  16C    basis set group =>   1
Atom  17C    basis set group =>   1
Atom  18C    basis set group =>   1
Atom  19C    basis set group =>   1
Atom  20C    basis set group =>   1
Atom  21C    basis set group =>   1
Atom  22C    basis set group =>   1
Atom  23C    basis set group =>   1
Atom  24H    basis set group =>   2
Atom  25H    basis set group =>   2
Atom  26H    basis set group =>   2
Atom  27H    basis set group =>   2
Atom  28H    basis set group =>   2
Atom  29H    basis set group =>   2
---------------------------------
AUXILIARY/J BASIS SET INFORMATION
---------------------------------
There are 2 groups of distinct atoms

 Group   1 Type C   : 12s5p4d2f1g contracted to 6s4p3d1f1g pattern {711111/2111/211/2/1}
 Group   2 Type H   : 5s2p1d contracted to 3s1p1d pattern {311/2/1}

Atom   0C    basis set group =>   1
Atom   1C    basis set group =>   1
Atom   2C    basis set group =>   1
Atom   3C    basis set group =>   1
Atom   4C    basis set group =>   1
Atom   5C    basis set group =>   1
Atom   6C    basis set group =>   1
Atom   7C    basis set group =>   1
Atom   8C    basis set group =>   1
Atom   9C    basis set group =>   1
Atom  10C    basis set group =>   1
Atom  11C    basis set group =>   1
Atom  12C    basis set group =>   1
Atom  13C    basis set group =>   1
Atom  14C    basis set group =>   1
Atom  15C    basis set group =>   1
Atom  16C    basis set group =>   1
Atom  17C    basis set group =>   1
Atom  18C    basis set group =>   1
Atom  19C    basis set group =>   1
Atom  20C    basis set group =>   1
Atom  21C    basis set group =>   1
Atom  22C    basis set group =>   1
Atom  23C    basis set group =>   1
Atom  24H    basis set group =>   2
Atom  25H    basis set group =>   2
Atom  26H    basis set group =>   2
Atom  27H    basis set group =>   2
Atom  28H    basis set group =>   2
Atom  29H    basis set group =>   2


           ************************************************************
           *        Program running with 3 parallel MPI-processes     *
           *              working on a common directory               *
           ************************************************************
------------------------------------------------------------------------------
                           ORCA GTO INTEGRAL CALCULATION
                           -- RI-GTO INTEGRALS CHOSEN --
------------------------------------------------------------------------------
------------------------------------------------------------------------------
                   ___                                                        
                  /   \      - P O W E R E D   B Y -                         
                 /     \                                                     
                 |  |  |   _    _      __       _____    __    __             
                 |  |  |  | |  | |    /  \     |  _  \  |  |  /  |          
                  \  \/   | |  | |   /    \    | | | |  |  | /  /          
                 / \  \   | |__| |  /  /\  \   | |_| |  |  |/  /          
                |  |  |   |  __  | /  /__\  \  |    /   |      \           
                |  |  |   | |  | | |   __   |  |    \   |  |\   \          
                \     /   | |  | | |  |  |  |  | |\  \  |  | \   \       
                 \___/    |_|  |_| |__|  |__|  |_| \__\ |__|  \__/        
                                                                              
                      - O R C A' S   B I G   F R I E N D -                    
                                      &                                       
                       - I N T E G R A L  F E E D E R -                       
                                                                              
 v1 FN, 2020, v2 2021                                                         
------------------------------------------------------------------------------


Reading SHARK input file five_six_two_one_ten_eleven_loss.SHARKINP.tmp ... ok
----------------------
SHARK INTEGRAL PACKAGE
----------------------

Number of atoms                             ...     30
Number of basis functions                   ...    780
Number of shells                            ...    288
Maximum angular momentum                    ...      3
Integral batch strategy                     ... SHARK/LIBINT Hybrid
RI-J (if used) integral strategy            ... SPLIT-RIJ (Revised 2003 algorithm where possible)
Printlevel                                  ...      1
Contraction scheme used                     ... SEGMENTED contraction
Coulomb Range Separation                    ... NOT USED
Exchange Range Separation                   ... NOT USED
Finite Nucleus Model                        ... NOT USED
Auxiliary Coulomb fitting basis             ... AVAILABLE
   # of basis functions in Aux-J            ...   1242
   # of shells in Aux-J                     ...    390
   Maximum angular momentum in Aux-J        ...      4
Auxiliary J/K fitting basis                 ... NOT available
Auxiliary Correlation fitting basis         ... NOT available
Auxiliary 'external' fitting basis          ... NOT available
Integral threshold                          ...     2.500000e-11
Primitive cut-off                           ...     2.500000e-12
Primitive pair pre-selection threshold      ...     2.500000e-12

Calculating pre-screening integrals         ... done (  0.1 sec) Dimension = 288
Organizing shell pair data                  ... done (  0.8 sec)
Shell pair information
Total number of shell pairs                 ...     41616
Shell pairs after pre-screening             ...     32525
Total number of primitive shell pairs       ...    133932
Primitive shell pairs kept                  ...     69761
          la=0 lb=0:   6871 shell pairs
          la=1 lb=0:   8822 shell pairs
          la=1 lb=1:   2734 shell pairs
          la=2 lb=0:   5003 shell pairs
          la=2 lb=1:   3176 shell pairs
          la=2 lb=2:    935 shell pairs
          la=3 lb=0:   2340 shell pairs
          la=3 lb=1:   1544 shell pairs
          la=3 lb=2:    874 shell pairs
          la=3 lb=3:    226 shell pairs

Calculating one electron integrals          ... done (  0.1 sec)
Calculating RI/J V-Matrix + Cholesky decomp.... done (  0.1 sec)
Calculating Nuclear repulsion               ... done (  0.0 sec) ENN=   1727.094414803090 Eh

SHARK setup successfully completed in   2.0 seconds

Maximum memory used throughout the entire GTOINT-calculation: 51.7 MB


           ************************************************************
           *        Program running with 3 parallel MPI-processes     *
           *              working on a common directory               *
           ************************************************************
-------------------------------------------------------------------------------
                                 ORCA SCF
-------------------------------------------------------------------------------

------------
SCF SETTINGS
------------
Hamiltonian:
 Density Functional     Method          .... DFT(GTOs)
 Exchange Functional    Exchange        .... M062X
 Correlation Functional Correlation     .... M062X
 Gradients option       PostSCFGGA      .... off
 Hybrid DFT is turned on
   Fraction HF Exchange ScalHFX         ....  0.540000
   Scaling of DF-GGA-X  ScalDFX         ....  0.460000
   Scaling of DF-GGA-C  ScalDFC         ....  1.000000
   Scaling of DF-LDA-C  ScalLDAC        ....  1.000000
   Perturbative correction              ....  0.000000
   Density functional embedding theory  .... OFF
 RI-approximation to the Coulomb term is turned on
   Number of AuxJ basis functions       .... 1242
   RIJ-COSX (HFX calculated with COS-X)).... on


General Settings:
 Integral files         IntName         .... five_six_two_one_ten_eleven_loss
 Hartree-Fock type      HFTyp           .... RHF
 Total Charge           Charge          ....    0
 Multiplicity           Mult            ....    1
 Number of Electrons    NEL             ....  150
 Basis Dimension        Dim             ....  780
 Nuclear Repulsion      ENuc            ....   1727.0944148031 Eh

Convergence Acceleration:
 DIIS                   CNVDIIS         .... on
   Start iteration      DIISMaxIt       ....    12
   Startup error        DIISStart       ....  0.200000
   # of expansion vecs  DIISMaxEq       ....     5
   Bias factor          DIISBfac        ....   1.050
   Max. coefficient     DIISMaxC        ....  10.000
 Trust-Rad. Augm. Hess. CNVTRAH         .... auto
   Auto Start mean grad. ratio tolernc. ....  1.125000
   Auto Start start iteration           ....    20
   Auto Start num. interpolation iter.  ....    10
   Max. Number of Micro iterations      ....    16
   Max. Number of Macro iterations      .... Maxiter - #DIIS iter
   Number of Davidson start vectors     ....     2
   Converg. threshold I  (grad. norm)   ....   1.000e-05
   Converg. threshold II (energy diff.) ....   1.000e-08
   Grad. Scal. Fac. for Micro threshold ....   0.100
   Minimum threshold for Micro iter.    ....   0.010
   NR start threshold (gradient norm)   ....   0.001
   Initial trust radius                 ....   0.400
   Minimum AH scaling param. (alpha)    ....   1.000
   Maximum AH scaling param. (alpha)    .... 1000.000
   Orbital update algorithm             .... Taylor
   White noise on init. David. guess    .... on
   Maximum white noise                  ....   0.010
   Quad. conv. algorithm                .... NR
 SOSCF                  CNVSOSCF        .... on
   Start iteration      SOSCFMaxIt      ....   150
   Startup grad/error   SOSCFStart      ....  0.003300
 Level Shifting         CNVShift        .... on
   Level shift para.    LevelShift      ....    0.2500
   Turn off err/grad.   ShiftErr        ....    0.0010
 Zerner damping         CNVZerner       .... off
 Static damping         CNVDamp         .... on
   Fraction old density DampFac         ....    0.7000
   Max. Damping (<1)    DampMax         ....    0.9800
   Min. Damping (>=0)   DampMin         ....    0.0000
   Turn off err/grad.   DampErr         ....    0.1000
 Fernandez-Rico         CNVRico         .... off

SCF Procedure:
 Maximum # iterations   MaxIter         ....   125
 SCF integral mode      SCFMode         .... Direct
   Integral package                     .... SHARK and LIBINT hybrid scheme
 Reset frequency        DirectResetFreq ....    20
 Integral Threshold     Thresh          ....  2.500e-11 Eh
 Primitive CutOff       TCut            ....  2.500e-12 Eh

Convergence Tolerance:
 Convergence Check Mode ConvCheckMode   .... Total+1el-Energy
 Convergence forced     ConvForced      .... 0
 Energy Change          TolE            ....  1.000e-08 Eh
 1-El. energy change                    ....  1.000e-05 Eh
 Orbital Gradient       TolG            ....  1.000e-05
 Orbital Rotation angle TolX            ....  1.000e-05
 DIIS Error             TolErr          ....  5.000e-07


Diagonalization of the overlap matrix:
Smallest eigenvalue                        ... 7.496e-07
Time for diagonalization                   ...    0.061 sec
Threshold for overlap eigenvalues          ... 1.000e-08
Number of eigenvalues below threshold      ... 0
Time for construction of square roots      ...    0.082 sec
Total time needed                          ...    0.145 sec

Time for model grid setup =    0.402 sec

------------------------------
INITIAL GUESS: MODEL POTENTIAL
------------------------------
Loading Hartree-Fock densities                     ... done
Calculating cut-offs                               ... done
Initializing the effective Hamiltonian             ... done
Setting up the integral package (SHARK)            ... done
Starting the Coulomb interaction                   ... done (   1.0 sec)
Reading the grid                                   ... done
Mapping shells                                     ... done
Starting the XC term evaluation                    ... done (   1.0 sec)
  promolecular density results
     # of electrons  =    149.983881488
     EX              =   -124.528038543
     EC              =     -5.081076559
     EX+EC           =   -129.609115102
Transforming the Hamiltonian                       ... done (   0.1 sec)
Diagonalizing the Hamiltonian                      ... done (   0.1 sec)
Back transforming the eigenvectors                 ... done (   0.0 sec)
Now organizing SCF variables                       ... done
                      ------------------
                      INITIAL GUESS DONE (   2.6 sec)
                      ------------------
-------------------
DFT GRID GENERATION
-------------------

General Integration Accuracy     IntAcc      ... 4.388
Radial Grid Type                 RadialGrid  ... OptM3 with GC (2021)
Angular Grid (max. ang.)         AngularGrid ... 4 (Lebedev-302)
Angular grid pruning method      GridPruning ... 4 (adaptive)
Weight generation scheme         WeightScheme... Becke
Basis function cutoff            BFCut       ... 1.0000e-11
Integration weight cutoff        WCut        ... 1.0000e-14
Angular grids for H and He will be reduced by one unit
Partially contracted basis set               ... off
Rotationally invariant grid construction     ... off

Total number of grid points                  ...   161669
Total number of batches                      ...     2541
Average number of points per batch           ...       63
Average number of grid points per atom       ...     5389
Time for grid setup =    1.362 sec

--------------------
COSX GRID GENERATION
--------------------

GRIDX 1
-------
General Integration Accuracy     IntAcc      ... 3.816
Radial Grid Type                 RadialGrid  ... OptM3 with GC (2021)
Angular Grid (max. ang.)         AngularGrid ... 1 (Lebedev-50)
Angular grid pruning method      GridPruning ... 4 (adaptive)
Weight generation scheme         WeightScheme... Becke
Basis function cutoff            BFCut       ... 1.0000e-11
Integration weight cutoff        WCut        ... 1.0000e-14
Angular grids for H and He will be reduced by one unit
Partially contracted basis set               ... on
Rotationally invariant grid construction     ... off

Total number of grid points                  ...    20521
Total number of batches                      ...      335
Average number of points per batch           ...       61
Average number of grid points per atom       ...      684
UseSFitting                                  ... on

GRIDX 2
-------
General Integration Accuracy     IntAcc      ... 4.020
Radial Grid Type                 RadialGrid  ... OptM3 with GC (2021)
Angular Grid (max. ang.)         AngularGrid ... 2 (Lebedev-110)
Angular grid pruning method      GridPruning ... 4 (adaptive)
Weight generation scheme         WeightScheme... Becke
Basis function cutoff            BFCut       ... 1.0000e-11
Integration weight cutoff        WCut        ... 1.0000e-14
Angular grids for H and He will be reduced by one unit
Partially contracted basis set               ... on
Rotationally invariant grid construction     ... off

Total number of grid points                  ...    46250
Total number of batches                      ...      738
Average number of points per batch           ...       62
Average number of grid points per atom       ...     1542
UseSFitting                                  ... on

GRIDX 3
-------
General Integration Accuracy     IntAcc      ... 4.338
Radial Grid Type                 RadialGrid  ... OptM3 with GC (2021)
Angular Grid (max. ang.)         AngularGrid ... 3 (Lebedev-194)
Angular grid pruning method      GridPruning ... 4 (adaptive)
Weight generation scheme         WeightScheme... Becke
Basis function cutoff            BFCut       ... 1.0000e-11
Integration weight cutoff        WCut        ... 1.0000e-14
Angular grids for H and He will be reduced by one unit
Partially contracted basis set               ... on
Rotationally invariant grid construction     ... off

Total number of grid points                  ...   102047
Total number of batches                      ...     1608
Average number of points per batch           ...       63
Average number of grid points per atom       ...     3402
UseSFitting                                  ... on

Time for X-Grid setup             =    2.892 sec

--------------
SCF ITERATIONS
--------------
ITER       Energy         Delta-E        Max-DP      RMS-DP      [F,P]     Damp
               ***  Starting incremental Fock matrix formation  ***
  0   -917.3009621367   0.000000000000 0.07914396  0.00131360  0.1479861 0.7000
  1   -917.4885282749  -0.187566138182 0.07241786  0.00109810  0.0811629 0.7000
                               ***Turning on DIIS***
  2   -917.5753693567  -0.086841081788 0.18492690  0.00263418  0.0554824 0.0000
  3   -917.7238326029  -0.148463246260 0.03662791  0.00070346  0.0517061 0.0000
  4   -917.7435417817  -0.019709178744 0.01936355  0.00022274  0.0470996 0.0000
  5   -917.7487232201  -0.005181438447 0.00772706  0.00012271  0.0065546 0.0000
                      *** Initiating the SOSCF procedure ***
                           *** Shutting down DIIS ***
                      *** Re-Reading the Fockian *** 
                      *** Removing any level shift *** 
ITER      Energy       Delta-E        Grad      Rot      Max-DP    RMS-DP
  6   -917.74896155  -0.0002383293  0.001941  0.001941  0.005468  0.000047
               *** Restarting incremental Fock matrix formation ***
  7   -917.74871136   0.0002501926  0.000703  0.003447  0.014688  0.000252
  8   -917.74876025  -0.0000488965  0.001986  0.020516  0.023027  0.000416
  9   -917.74874107   0.0000191824  0.002961  0.010219  0.017876  0.000315
 10   -917.74878867  -0.0000476025  0.000719  0.003682  0.014272  0.000244
 11   -917.74878863   0.0000000389  0.000754  0.003906  0.009758  0.000167
 12   -917.74880567  -0.0000170399  0.000084  0.000424  0.001068  0.000019
 13   -917.74880511   0.0000005669  0.000131  0.000438  0.001170  0.000020
 14   -917.74880627  -0.0000011644  0.000011  0.000039  0.000092  0.000002
 15   -917.74880626   0.0000000124  0.000019  0.000030  0.000082  0.000001
 16   -917.74880629  -0.0000000314  0.000005  0.000015  0.000067  0.000001
 17   -917.74880629  -0.0000000014  0.000008  0.000010  0.000029  0.000001
                  ***Gradient check signals convergence***
              ***Rediagonalizing the Fockian in SOSCF/NRSCF***

               *****************************************************
               *                     SUCCESS                       *
               *           SCF CONVERGED AFTER  18 CYCLES          *
               *****************************************************

Old exchange energy                            =    -68.275842307 Eh
New exchange energy                            =    -68.275691415 Eh
Exchange energy change after final integration =      0.000150892 Eh
Total energy after final integration           =   -917.748655374 Eh
Final COS-X integration done in                =    67.079 sec

----------------
TOTAL SCF ENERGY
----------------

Total Energy       :         -917.74865537 Eh          -24973.21053 eV

Components:
Nuclear Repulsion  :         1727.09441480 Eh           46996.62829 eV
Electronic Energy  :        -2644.84307018 Eh          -71969.83882 eV
One Electron Energy:        -4668.10336160 Eh         -127025.55032 eV
Two Electron Energy:         2023.26029142 Eh           55055.71151 eV
Max COSX asymmetry :            0.00000395 Eh               0.00011 eV

Virial components:
Potential Energy   :        -1831.05195388 Eh          -49825.45674 eV
Kinetic Energy     :          913.30329850 Eh           24852.24622 eV
Virial Ratio       :            2.00486734


DFT components:
N(Alpha)           :       75.000142660214 electrons
N(Beta)            :       75.000142660214 electrons
N(Total)           :      150.000285320429 electrons
E(XC)              :      -63.842452508858 Eh       
DFET-embed. en.    :        0.000000000000 Eh       

---------------
SCF CONVERGENCE
---------------

  Last Energy change         ...    2.5782e-08  Tolerance :   1.0000e-08
  Last MAX-Density change    ...    1.8874e-15  Tolerance :   1.0000e-07
  Last RMS-Density change    ...    1.2841e-17  Tolerance :   5.0000e-09
  Last Orbital Gradient      ...    6.4851e-07  Tolerance :   1.0000e-05
  Last Orbital Rotation      ...    2.5071e-06  Tolerance :   1.0000e-05

             **** THE GBW FILE WAS UPDATED (five_six_two_one_ten_eleven_loss.gbw) ****
             **** DENSITY five_six_two_one_ten_eleven_loss.scfp WAS UPDATED ****
             **** ENERGY FILE WAS UPDATED (five_six_two_one_ten_eleven_loss.en.tmp) ****
             **** THE GBW FILE WAS UPDATED (five_six_two_one_ten_eleven_loss.gbw) ****
             **** DENSITY five_six_two_one_ten_eleven_loss.scfp WAS UPDATED ****
----------------
ORBITAL ENERGIES
----------------

  NO   OCC          E(Eh)            E(eV) 
   0   2.0000     -10.606628      -288.6210 
   1   2.0000     -10.600490      -288.4540 
   2   2.0000     -10.597067      -288.3609 
   3   2.0000     -10.596951      -288.3577 
   4   2.0000     -10.596259      -288.3389 
   5   2.0000     -10.595385      -288.3151 
   6   2.0000     -10.593218      -288.2561 
   7   2.0000     -10.588336      -288.1233 
   8   2.0000     -10.587165      -288.0914 
   9   2.0000     -10.586546      -288.0746 
  10   2.0000     -10.585555      -288.0476 
  11   2.0000     -10.585122      -288.0358 
  12   2.0000     -10.583627      -287.9951 
  13   2.0000     -10.572876      -287.7026 
  14   2.0000     -10.571723      -287.6712 
  15   2.0000     -10.569104      -287.5999 
  16   2.0000     -10.567838      -287.5655 
  17   2.0000     -10.567722      -287.5623 
  18   2.0000     -10.566328      -287.5244 
  19   2.0000     -10.561648      -287.3970 
  20   2.0000     -10.560755      -287.3728 
  21   2.0000     -10.560570      -287.3677 
  22   2.0000     -10.558172      -287.3025 
  23   2.0000     -10.558031      -287.2986 
  24   2.0000      -1.043695       -28.4004 
  25   2.0000      -1.005162       -27.3518 
  26   2.0000      -1.004148       -27.3243 
  27   2.0000      -0.952977       -25.9318 
  28   2.0000      -0.951922       -25.9031 
  29   2.0000      -0.927498       -25.2385 
  30   2.0000      -0.900741       -24.5104 
  31   2.0000      -0.880946       -23.9718 
  32   2.0000      -0.860479       -23.4148 
  33   2.0000      -0.853094       -23.2139 
  34   2.0000      -0.828600       -22.5473 
  35   2.0000      -0.823138       -22.3987 
  36   2.0000      -0.746729       -20.3195 
  37   2.0000      -0.739326       -20.1181 
  38   2.0000      -0.731737       -19.9116 
  39   2.0000      -0.719344       -19.5743 
  40   2.0000      -0.714177       -19.4338 
  41   2.0000      -0.663690       -18.0599 
  42   2.0000      -0.636081       -17.3086 
  43   2.0000      -0.624238       -16.9864 
  44   2.0000      -0.611747       -16.6465 
  45   2.0000      -0.604958       -16.4618 
  46   2.0000      -0.600074       -16.3289 
  47   2.0000      -0.561177       -15.2704 
  48   2.0000      -0.552484       -15.0338 
  49   2.0000      -0.547723       -14.9043 
  50   2.0000      -0.535617       -14.5749 
  51   2.0000      -0.532473       -14.4893 
  52   2.0000      -0.524428       -14.2704 
  53   2.0000      -0.520806       -14.1718 
  54   2.0000      -0.506705       -13.7882 
  55   2.0000      -0.497260       -13.5311 
  56   2.0000      -0.486902       -13.2493 
  57   2.0000      -0.486730       -13.2446 
  58   2.0000      -0.469050       -12.7635 
  59   2.0000      -0.466054       -12.6820 
  60   2.0000      -0.455079       -12.3833 
  61   2.0000      -0.436723       -11.8838 
  62   2.0000      -0.426033       -11.5929 
  63   2.0000      -0.424023       -11.5383 
  64   2.0000      -0.418508       -11.3882 
  65   2.0000      -0.404474       -11.0063 
  66   2.0000      -0.356032        -9.6881 
  67   2.0000      -0.347533        -9.4569 
  68   2.0000      -0.342932        -9.3317 
  69   2.0000      -0.338482        -9.2106 
  70   2.0000      -0.331249        -9.0137 
  71   2.0000      -0.327135        -8.9018 
  72   2.0000      -0.275276        -7.4906 
  73   2.0000      -0.269520        -7.3340 
  74   2.0000      -0.256233        -6.9725 
  75   0.0000      -0.137150        -3.7320 
  76   0.0000      -0.057186        -1.5561 
  77   0.0000      -0.050565        -1.3759 
  78   0.0000      -0.048043        -1.3073 
  79   0.0000      -0.046686        -1.2704 
  80   0.0000      -0.010842        -0.2950 
  81   0.0000      -0.000859        -0.0234 
  82   0.0000       0.005764         0.1569 
  83   0.0000       0.048936         1.3316 
  84   0.0000       0.077462         2.1079 
  85   0.0000       0.089543         2.4366 
  86   0.0000       0.090136         2.4527 
  87   0.0000       0.102713         2.7950 
  88   0.0000       0.112439         3.0596 
  89   0.0000       0.113364         3.0848 
  90   0.0000       0.117525         3.1980 
  91   0.0000       0.123718         3.3665 
  92   0.0000       0.125069         3.4033 
  93   0.0000       0.130431         3.5492 
  94   0.0000       0.134518         3.6604 
  95   0.0000       0.137127         3.7314 
  96   0.0000       0.167123         4.5477 
  97   0.0000       0.172547         4.6952 
  98   0.0000       0.174413         4.7460 
  99   0.0000       0.185994         5.0612 
 100   0.0000       0.187462         5.1011 
 101   0.0000       0.195593         5.3224 
 102   0.0000       0.195983         5.3330 
 103   0.0000       0.202365         5.5066 
 104   0.0000       0.202536         5.5113 
 105   0.0000       0.205890         5.6026 
 106   0.0000       0.220397         5.9973 
 107   0.0000       0.223222         6.0742 
 108   0.0000       0.225031         6.1234 
 109   0.0000       0.228096         6.2068 
 110   0.0000       0.233638         6.3576 
 111   0.0000       0.245863         6.6903 
 112   0.0000       0.247987         6.7481 
 113   0.0000       0.254496         6.9252 
 114   0.0000       0.255711         6.9583 
 115   0.0000       0.261841         7.1250 
 116   0.0000       0.265838         7.2338 
 117   0.0000       0.267687         7.2841 
 118   0.0000       0.272562         7.4168 
 119   0.0000       0.276965         7.5366 
 120   0.0000       0.277971         7.5640 
 121   0.0000       0.278845         7.5878 
 122   0.0000       0.288421         7.8483 
 123   0.0000       0.293528         7.9873 
 124   0.0000       0.296657         8.0724 
 125   0.0000       0.297803         8.1036 
 126   0.0000       0.306127         8.3301 
 127   0.0000       0.311853         8.4860 
 128   0.0000       0.313368         8.5272 
 129   0.0000       0.315127         8.5750 
 130   0.0000       0.319300         8.6886 
 131   0.0000       0.321979         8.7615 
 132   0.0000       0.324918         8.8415 
 133   0.0000       0.329045         8.9538 
 134   0.0000       0.338919         9.2224 
 135   0.0000       0.343418         9.3449 
 136   0.0000       0.350115         9.5271 
 137   0.0000       0.351297         9.5593 
 138   0.0000       0.356701         9.7063 
 139   0.0000       0.359481         9.7820 
 140   0.0000       0.360211         9.8019 
 141   0.0000       0.367559        10.0018 
 142   0.0000       0.371199        10.1008 
 143   0.0000       0.374446        10.1892 
 144   0.0000       0.379310        10.3215 
 145   0.0000       0.380403        10.3513 
 146   0.0000       0.380766        10.3612 
 147   0.0000       0.383292        10.4299 
 148   0.0000       0.386863        10.5271 
 149   0.0000       0.394038        10.7223 
 150   0.0000       0.402831        10.9616 
 151   0.0000       0.406340        11.0571 
 152   0.0000       0.411548        11.1988 
 153   0.0000       0.418647        11.3920 
 154   0.0000       0.420626        11.4458 
 155   0.0000       0.422478        11.4962 
 156   0.0000       0.428359        11.6562 
 157   0.0000       0.436503        11.8779 
 158   0.0000       0.445583        12.1249 
 159   0.0000       0.452092        12.3021 
 160   0.0000       0.453040        12.3278 
 161   0.0000       0.456467        12.4211 
 162   0.0000       0.466552        12.6955 
 163   0.0000       0.467165        12.7122 
 164   0.0000       0.471542        12.8313 
 165   0.0000       0.478307        13.0154 
 166   0.0000       0.491748        13.3811 
 167   0.0000       0.492795        13.4096 
 168   0.0000       0.494409        13.4536 
 169   0.0000       0.504298        13.7227 
 170   0.0000       0.507911        13.8210 
 171   0.0000       0.509336        13.8597 
 172   0.0000       0.511685        13.9237 
 173   0.0000       0.520519        14.1640 
 174   0.0000       0.535355        14.5678 
 175   0.0000       0.539214        14.6727 
 176   0.0000       0.539788        14.6884 
 177   0.0000       0.542428        14.7602 
 178   0.0000       0.544693        14.8219 
 179   0.0000       0.550458        14.9787 
 180   0.0000       0.552539        15.0354 
 181   0.0000       0.561852        15.2888 
 182   0.0000       0.565861        15.3979 
 183   0.0000       0.570726        15.5302 
 184   0.0000       0.580107        15.7855 
 185   0.0000       0.590775        16.0758 
 186   0.0000       0.595486        16.2040 
 187   0.0000       0.605177        16.4677 
 188   0.0000       0.623416        16.9640 
 189   0.0000       0.625242        17.0137 
 190   0.0000       0.626514        17.0483 
 191   0.0000       0.629481        17.1291 
 192   0.0000       0.629560        17.1312 
 193   0.0000       0.637513        17.3476 
 194   0.0000       0.641381        17.4529 
 195   0.0000       0.649874        17.6840 
 196   0.0000       0.653591        17.7851 
 197   0.0000       0.653750        17.7895 
 198   0.0000       0.660494        17.9729 
 199   0.0000       0.664438        18.0803 
 200   0.0000       0.672417        18.2974 
 201   0.0000       0.676173        18.3996 
 202   0.0000       0.680286        18.5115 
 203   0.0000       0.687960        18.7204 
 204   0.0000       0.689979        18.7753 
 205   0.0000       0.696567        18.9546 
 206   0.0000       0.702196        19.1077 
 207   0.0000       0.718172        19.5425 
 208   0.0000       0.720851        19.6153 
 209   0.0000       0.722371        19.6567 
 210   0.0000       0.724578        19.7168 
 211   0.0000       0.731211        19.8973 
 212   0.0000       0.737985        20.0816 
 213   0.0000       0.749264        20.3885 
 214   0.0000       0.759764        20.6742 
 215   0.0000       0.759784        20.6748 
 216   0.0000       0.764460        20.8020 
 217   0.0000       0.766382        20.8543 
 218   0.0000       0.777772        21.1642 
 219   0.0000       0.780507        21.2387 
 220   0.0000       0.784223        21.3398 
 221   0.0000       0.786226        21.3943 
 222   0.0000       0.790369        21.5070 
 223   0.0000       0.792984        21.5782 
 224   0.0000       0.796732        21.6802 
 225   0.0000       0.802269        21.8308 
 226   0.0000       0.808930        22.0121 
 227   0.0000       0.814642        22.1675 
 228   0.0000       0.820024        22.3140 
 229   0.0000       0.822338        22.3769 
 230   0.0000       0.826742        22.4968 
 231   0.0000       0.842416        22.9233 
 232   0.0000       0.848327        23.0841 
 233   0.0000       0.852104        23.1869 
 234   0.0000       0.855308        23.2741 
 235   0.0000       0.857351        23.3297 
 236   0.0000       0.864247        23.5174 
 237   0.0000       0.876525        23.8515 
 238   0.0000       0.879674        23.9371 
 239   0.0000       0.883327        24.0366 
 240   0.0000       0.887356        24.1462 
 241   0.0000       0.895450        24.3664 
 242   0.0000       0.900609        24.5068 
 243   0.0000       0.903591        24.5880 
 244   0.0000       0.904384        24.6096 
 245   0.0000       0.908886        24.7320 
 246   0.0000       0.911217        24.7955 
 247   0.0000       0.934933        25.4408 
 248   0.0000       0.941145        25.6098 
 249   0.0000       0.947688        25.7879 
 250   0.0000       0.952927        25.9305 
 251   0.0000       0.957812        26.0634 
 252   0.0000       0.966589        26.3022 
 253   0.0000       0.976991        26.5853 
 254   0.0000       0.990071        26.9412 
 255   0.0000       0.993600        27.0372 
 256   0.0000       1.000781        27.2326 
 257   0.0000       1.010386        27.4940 
 258   0.0000       1.020572        27.7712 
 259   0.0000       1.026747        27.9392 
 260   0.0000       1.050179        28.5768 
 261   0.0000       1.053678        28.6720 
 262   0.0000       1.063102        28.9285 
 263   0.0000       1.068206        29.0674 
 264   0.0000       1.071199        29.1488 
 265   0.0000       1.072792        29.1921 
 266   0.0000       1.085046        29.5256 
 267   0.0000       1.088274        29.6134 
 268   0.0000       1.090893        29.6847 
 269   0.0000       1.102023        29.9876 
 270   0.0000       1.111235        30.2382 
 271   0.0000       1.137834        30.9620 
 272   0.0000       1.146649        31.2019 
 273   0.0000       1.152440        31.3595 
 274   0.0000       1.157006        31.4837 
 275   0.0000       1.163909        31.6716 
 276   0.0000       1.181654        32.1544 
 277   0.0000       1.203259        32.7423 
 278   0.0000       1.205346        32.7991 
 279   0.0000       1.207611        32.8608 
 280   0.0000       1.215303        33.0701 
 281   0.0000       1.223374        33.2897 
 282   0.0000       1.227190        33.3935 
 283   0.0000       1.237381        33.6708 
 284   0.0000       1.238671        33.7059 
 285   0.0000       1.240367        33.7521 
 286   0.0000       1.242615        33.8133 
 287   0.0000       1.244756        33.8715 
 288   0.0000       1.254954        34.1490 
 289   0.0000       1.255094        34.1529 
 290   0.0000       1.274568        34.6828 
 291   0.0000       1.278987        34.8030 
 292   0.0000       1.291089        35.1323 
 293   0.0000       1.297095        35.2958 
 294   0.0000       1.301945        35.4277 
 295   0.0000       1.305326        35.5197 
 296   0.0000       1.306976        35.5646 
 297   0.0000       1.315409        35.7941 
 298   0.0000       1.316872        35.8339 
 299   0.0000       1.324424        36.0394 
 300   0.0000       1.337342        36.3909 
 301   0.0000       1.344544        36.5869 
 302   0.0000       1.350931        36.7607 
 303   0.0000       1.364972        37.1428 
 304   0.0000       1.366330        37.1797 
 305   0.0000       1.371187        37.3119 
 306   0.0000       1.378345        37.5067 
 307   0.0000       1.388948        37.7952 
 308   0.0000       1.399522        38.0829 
 309   0.0000       1.410490        38.3814 
 310   0.0000       1.413460        38.4622 
 311   0.0000       1.414495        38.4904 
 312   0.0000       1.422133        38.6982 
 313   0.0000       1.423920        38.7468 
 314   0.0000       1.429647        38.9027 
 315   0.0000       1.430105        38.9151 
 316   0.0000       1.439723        39.1769 
 317   0.0000       1.446761        39.3684 
 318   0.0000       1.459004        39.7015 
 319   0.0000       1.469396        39.9843 
 320   0.0000       1.478306        40.2267 
 321   0.0000       1.486134        40.4398 
 322   0.0000       1.505134        40.9568 
 323   0.0000       1.510582        41.1050 
 324   0.0000       1.522034        41.4166 
 325   0.0000       1.529027        41.6069 
 326   0.0000       1.530619        41.6503 
 327   0.0000       1.531933        41.6860 
 328   0.0000       1.535698        41.7885 
 329   0.0000       1.541725        41.9525 
 330   0.0000       1.558583        42.4112 
 331   0.0000       1.569540        42.7093 
 332   0.0000       1.577822        42.9347 
 333   0.0000       1.580794        43.0156 
 334   0.0000       1.581291        43.0291 
 335   0.0000       1.584997        43.1300 
 336   0.0000       1.592540        43.3352 
 337   0.0000       1.597604        43.4730 
 338   0.0000       1.607313        43.7372 
 339   0.0000       1.617422        44.0123 
 340   0.0000       1.618058        44.0296 
 341   0.0000       1.638413        44.5835 
 342   0.0000       1.644523        44.7497 
 343   0.0000       1.645675        44.7811 
 344   0.0000       1.650486        44.9120 
 345   0.0000       1.654510        45.0215 
 346   0.0000       1.656182        45.0670 
 347   0.0000       1.659814        45.1658 
 348   0.0000       1.663973        45.2790 
 349   0.0000       1.671309        45.4786 
 350   0.0000       1.687992        45.9326 
 351   0.0000       1.692898        46.0661 
 352   0.0000       1.704199        46.3736 
 353   0.0000       1.708303        46.4853 
 354   0.0000       1.709647        46.5219 
 355   0.0000       1.723704        46.9044 
 356   0.0000       1.737060        47.2678 
 357   0.0000       1.737658        47.2841 
 358   0.0000       1.745949        47.5097 
 359   0.0000       1.752539        47.6890 
 360   0.0000       1.754424        47.7403 
 361   0.0000       1.763975        48.0002 
 362   0.0000       1.776592        48.3435 
 363   0.0000       1.785001        48.5723 
 364   0.0000       1.792651        48.7805 
 365   0.0000       1.806898        49.1682 
 366   0.0000       1.829696        49.7886 
 367   0.0000       1.838183        50.0195 
 368   0.0000       1.840064        50.0707 
 369   0.0000       1.852948        50.4213 
 370   0.0000       1.883937        51.2645 
 371   0.0000       1.891188        51.4618 
 372   0.0000       1.894486        51.5516 
 373   0.0000       1.903993        51.8103 
 374   0.0000       1.911690        52.0197 
 375   0.0000       1.915797        52.1315 
 376   0.0000       1.932482        52.5855 
 377   0.0000       1.936042        52.6824 
 378   0.0000       1.949782        53.0563 
 379   0.0000       1.961536        53.3761 
 380   0.0000       1.975544        53.7573 
 381   0.0000       1.977093        53.7994 
 382   0.0000       1.995171        54.2914 
 383   0.0000       2.009983        54.6944 
 384   0.0000       2.015833        54.8536 
 385   0.0000       2.017382        54.8958 
 386   0.0000       2.020297        54.9751 
 387   0.0000       2.035152        55.3793 
 388   0.0000       2.036953        55.4283 
 389   0.0000       2.051545        55.8254 
 390   0.0000       2.068569        56.2886 
 391   0.0000       2.073538        56.4238 
 392   0.0000       2.085822        56.7581 
 393   0.0000       2.111523        57.4574 
 394   0.0000       2.127964        57.9049 
 395   0.0000       2.129372        57.9432 
 396   0.0000       2.132679        58.0332 
 397   0.0000       2.148866        58.4736 
 398   0.0000       2.151362        58.5415 
 399   0.0000       2.154074        58.6153 
 400   0.0000       2.158745        58.7424 
 401   0.0000       2.168941        59.0199 
 402   0.0000       2.189651        59.5834 
 403   0.0000       2.200248        59.8718 
 404   0.0000       2.217858        60.3510 
 405   0.0000       2.221916        60.4614 
 406   0.0000       2.232982        60.7625 
 407   0.0000       2.235669        60.8357 
 408   0.0000       2.236398        60.8555 
 409   0.0000       2.242439        61.0199 
 410   0.0000       2.250736        61.2456 
 411   0.0000       2.255058        61.3633 
 412   0.0000       2.263873        61.6031 
 413   0.0000       2.279963        62.0410 
 414   0.0000       2.284271        62.1582 
 415   0.0000       2.285161        62.1824 
 416   0.0000       2.289165        62.2913 
 417   0.0000       2.296645        62.4949 
 418   0.0000       2.302498        62.6542 
 419   0.0000       2.323469        63.2248 
 420   0.0000       2.333399        63.4950 
 421   0.0000       2.339823        63.6698 
 422   0.0000       2.361480        64.2591 
 423   0.0000       2.371952        64.5441 
 424   0.0000       2.382202        64.8230 
 425   0.0000       2.390346        65.0446 
 426   0.0000       2.409997        65.5794 
 427   0.0000       2.431262        66.1580 
 428   0.0000       2.436000        66.2869 
 429   0.0000       2.446826        66.5815 
 430   0.0000       2.457315        66.8669 
 431   0.0000       2.464892        67.0731 
 432   0.0000       2.470758        67.2328 
 433   0.0000       2.483513        67.5798 
 434   0.0000       2.495111        67.8954 
 435   0.0000       2.518995        68.5453 
 436   0.0000       2.528132        68.7940 
 437   0.0000       2.537898        69.0597 
 438   0.0000       2.553422        69.4821 
 439   0.0000       2.561492        69.7018 
 440   0.0000       2.566294        69.8324 
 441   0.0000       2.587143        70.3997 
 442   0.0000       2.597470        70.6808 
 443   0.0000       2.599252        70.7292 
 444   0.0000       2.611592        71.0650 
 445   0.0000       2.618410        71.2506 
 446   0.0000       2.619456        71.2790 
 447   0.0000       2.628301        71.5197 
 448   0.0000       2.629830        71.5613 
 449   0.0000       2.645096        71.9767 
 450   0.0000       2.645353        71.9837 
 451   0.0000       2.648475        72.0687 
 452   0.0000       2.654525        72.2333 
 453   0.0000       2.666586        72.5615 
 454   0.0000       2.673009        72.7363 
 455   0.0000       2.686961        73.1159 
 456   0.0000       2.688488        73.1575 
 457   0.0000       2.697549        73.4040 
 458   0.0000       2.702728        73.5450 
 459   0.0000       2.711737        73.7901 
 460   0.0000       2.712238        73.8037 
 461   0.0000       2.718405        73.9715 
 462   0.0000       2.724430        74.1355 
[...]
|  sn=10 | S(rot)=       0.36634859 Eh    229.89 kcal/mol|
|  sn=11 | S(rot)=       0.36453763 Eh    228.75 kcal/mol|
|  sn=12 | S(rot)=       0.36288434 Eh    227.71 kcal/mol|
 --------------------------------------------------------


-------------------
GIBBS FREE ENERGY
-------------------

The Gibbs free energy is G = H - T*S

Total enthalpy                    ...   -916.07701389 Eh 
Total entropy correction          ...     -5.08523371 Eh  -3191.03 kcal/mol
-----------------------------------------------------------------------
Final Gibbs free energy         ...   -921.16224761 Eh

For completeness - the Gibbs free energy minus the electronic energy
G-E(el)                           ...     -3.40001762 Eh  -2133.54 kcal/mol


The first frequency considered to be a vibration is 6
The total number of vibrations considered is 84


--------------------------
THERMOCHEMISTRY AT 8000.00K
--------------------------

Temperature         ... 8000.00 K
Pressure            ... 1.00 atm
Total Mass          ... 294.31 AMU

Throughout the following assumptions are being made:
  (1) The electronic state is orbitally nondegenerate
  (2) There are no thermally accessible electronically excited states
  (3) Hindered rotations indicated by low frequency modes are not
      treated as such but are treated as vibrations and this may
      cause some error
  (4) All equations used are the standard statistical mechanics
      equations for an ideal gas
  (5) All vibrations are strictly harmonic

freq.      42.97  E(vib)   ...      15.84 
freq.      78.24  E(vib)   ...      15.79 
freq.     128.02  E(vib)   ...      15.72 
freq.     156.43  E(vib)   ...      15.68 
freq.     214.68  E(vib)   ...      15.59 
freq.     214.82  E(vib)   ...      15.59 
freq.     278.51  E(vib)   ...      15.50 
freq.     299.02  E(vib)   ...      15.47 
freq.     324.24  E(vib)   ...      15.44 
freq.     351.01  E(vib)   ...      15.40 
freq.     354.24  E(vib)   ...      15.40 
freq.     360.54  E(vib)   ...      15.39 
freq.     392.72  E(vib)   ...      15.34 
freq.     413.44  E(vib)   ...      15.31 
freq.     424.12  E(vib)   ...      15.30 
freq.     427.37  E(vib)   ...      15.29 
freq.     450.27  E(vib)   ...      15.26 
freq.     461.13  E(vib)   ...      15.25 
freq.     471.53  E(vib)   ...      15.23 
freq.     498.13  E(vib)   ...      15.20 
freq.     501.71  E(vib)   ...      15.19 
freq.     505.15  E(vib)   ...      15.19 
freq.     534.94  E(vib)   ...      15.15 
freq.     538.30  E(vib)   ...      15.14 
freq.     545.37  E(vib)   ...      15.13 
freq.     579.84  E(vib)   ...      15.08 
freq.     591.82  E(vib)   ...      15.07 
freq.     609.49  E(vib)   ...      15.04 
freq.     657.28  E(vib)   ...      14.98 
freq.     678.61  E(vib)   ...      14.95 
freq.     683.14  E(vib)   ...      14.94 
freq.     706.88  E(vib)   ...      14.91 
freq.     738.41  E(vib)   ...      14.87 
freq.     785.94  E(vib)   ...      14.80 
freq.     804.43  E(vib)   ...      14.78 
freq.     819.79  E(vib)   ...      14.75 
freq.     825.49  E(vib)   ...      14.75 
freq.     827.54  E(vib)   ...      14.74 
freq.     850.31  E(vib)   ...      14.71 
freq.     853.11  E(vib)   ...      14.71 
freq.     858.07  E(vib)   ...      14.70 
freq.     876.51  E(vib)   ...      14.68 
freq.     889.23  E(vib)   ...      14.66 
freq.     962.54  E(vib)   ...      14.56 
freq.     988.33  E(vib)   ...      14.53 
freq.     996.15  E(vib)   ...      14.52 
freq.     997.56  E(vib)   ...      14.51 
freq.    1016.26  E(vib)   ...      14.49 
freq.    1096.74  E(vib)   ...      14.38 
freq.    1131.63  E(vib)   ...      14.34 
freq.    1148.54  E(vib)   ...      14.31 
freq.    1157.82  E(vib)   ...      14.30 
freq.    1192.06  E(vib)   ...      14.25 
freq.    1208.87  E(vib)   ...      14.23 
freq.    1218.92  E(vib)   ...      14.22 
freq.    1248.80  E(vib)   ...      14.18 
freq.    1252.21  E(vib)   ...      14.18 
freq.    1259.86  E(vib)   ...      14.16 
freq.    1312.03  E(vib)   ...      14.10 
freq.    1326.39  E(vib)   ...      14.08 
freq.    1329.68  E(vib)   ...      14.07 
freq.    1360.26  E(vib)   ...      14.03 
freq.    1374.98  E(vib)   ...      14.01 
freq.    1389.85  E(vib)   ...      13.99 
freq.    1406.97  E(vib)   ...      13.97 
freq.    1408.73  E(vib)   ...      13.97 
freq.    1461.61  E(vib)   ...      13.90 
freq.    1471.92  E(vib)   ...      13.89 
freq.    1493.45  E(vib)   ...      13.86 
freq.    1511.50  E(vib)   ...      13.83 
freq.    1550.22  E(vib)   ...      13.78 
freq.    1599.59  E(vib)   ...      13.72 
freq.    1617.78  E(vib)   ...      13.70 
freq.    1648.97  E(vib)   ...      13.66 
freq.    1661.97  E(vib)   ...      13.64 
freq.    1718.07  E(vib)   ...      13.57 
freq.    2133.42  E(vib)   ...      13.04 
freq.    2154.76  E(vib)   ...      13.02 
freq.    3191.58  E(vib)   ...      11.77 
freq.    3205.88  E(vib)   ...      11.75 
freq.    3218.59  E(vib)   ...      11.74 
freq.    3232.41  E(vib)   ...      11.72 
freq.    3241.16  E(vib)   ...      11.71 
freq.    3246.72  E(vib)   ...      11.71 

------------
INNER ENERGY
------------

The inner energy is: U= E(el) + E(ZPE) + E(vib) + E(rot) + E(trans)
    E(el)   - is the total energy from the electronic structure calculation
              = E(kin-el) + E(nuc-el) + E(el-el) + E(nuc-nuc)
    E(ZPE)  - the the zero temperature vibrational energy from the frequency calculation
    E(vib)  - the the finite temperature correction to E(ZPE) due to population
              of excited vibrational states
    E(rot)  - is the rotational thermal energy
    E(trans)- is the translational thermal energy

Summary of contributions to the inner energy U:
Electronic energy                ...   -917.76222999 Eh
Zero point energy                ...      0.20445993 Eh     128.30 kcal/mol
Thermal vibrational correction   ...      1.93353861 Eh    1213.31 kcal/mol
Thermal rotational correction    ...      0.03800158 Eh      23.85 kcal/mol
Thermal translational correction ...      0.03800158 Eh      23.85 kcal/mol
-----------------------------------------------------------------------
Total thermal energy                   -915.54822829 Eh


Summary of corrections to the electronic energy:
(perhaps to be used in another calculation)
Total thermal correction                  2.00954177 Eh    1261.00 kcal/mol
Non-thermal (ZPE) correction              0.20445993 Eh     128.30 kcal/mol
-----------------------------------------------------------------------
Total correction                          2.21400170 Eh    1389.30 kcal/mol


--------
ENTHALPY
--------

The enthalpy is H = U + kB*T
                kB is Boltzmann's constant
Total free energy                 ...   -915.54822829 Eh 
Thermal Enthalpy correction       ...      0.02533514 Eh      15.90 kcal/mol
-----------------------------------------------------------------------
Total Enthalpy                    ...   -915.52289315 Eh


Note: Only C1 symmetry has been detected, increase convergence thresholds 
      if your molecule has a higher symmetry. Symmetry factor of 1.0 is   
      used for the rotational entropy correction. 
 

Note: Rotational entropy computed according to Herzberg 
Infrared and Raman Spectra, Chapter V,1, Van Nostrand Reinhold, 1945 
Point Group:  C1, Symmetry Number:   1  
Rotational constants in cm-1:     0.012072     0.011517     0.005894 

Vibrational entropy computed according to the QRRHO of S. Grimme
Chem.Eur.J. 2012 18 9955


-------
ENTROPY
-------

The entropy contributions are T*S = T*(S(el)+S(vib)+S(rot)+S(trans))
     S(el)   - electronic entropy
     S(vib)  - vibrational entropy
     S(rot)  - rotational entropy
     S(trans)- translational entropy
The entropies will be listed as multiplied by the temperature to get
units of energy

Electronic entropy                ...      0.00000000 Eh      0.00 kcal/mol
Vibrational entropy               ...      6.09607511 Eh   3825.34 kcal/mol
Rotational entropy                ...      0.55773175 Eh    349.98 kcal/mol
Translational entropy             ...      0.75572723 Eh    474.22 kcal/mol
-----------------------------------------------------------------------
Final entropy term                ...      7.40953410 Eh   4649.54 kcal/mol

In case the symmetry of your molecule has not been determined correctly
or in case you have a reason to use a different symmetry number we print 
out the resulting rotational entropy values for sn=1,12 :
 --------------------------------------------------------
|  sn= 1 | S(rot)=       0.55773175 Eh    349.98 kcal/mol|
|  sn= 2 | S(rot)=       0.54017129 Eh    338.96 kcal/mol|
|  sn= 3 | S(rot)=       0.52989908 Eh    332.52 kcal/mol|
|  sn= 4 | S(rot)=       0.52261083 Eh    327.94 kcal/mol|
|  sn= 5 | S(rot)=       0.51695763 Eh    324.40 kcal/mol|
|  sn= 6 | S(rot)=       0.51233862 Eh    321.50 kcal/mol|
|  sn= 7 | S(rot)=       0.50843331 Eh    319.05 kcal/mol|
|  sn= 8 | S(rot)=       0.50505037 Eh    316.92 kcal/mol|
|  sn= 9 | S(rot)=       0.50206641 Eh    315.05 kcal/mol|
|  sn=10 | S(rot)=       0.49939717 Eh    313.38 kcal/mol|
|  sn=11 | S(rot)=       0.49698254 Eh    311.86 kcal/mol|
|  sn=12 | S(rot)=       0.49477816 Eh    310.48 kcal/mol|
 --------------------------------------------------------


-------------------
GIBBS FREE ENERGY
-------------------

The Gibbs free energy is G = H - T*S

Total enthalpy                    ...   -915.52289315 Eh 
Total entropy correction          ...     -7.40953410 Eh  -4649.54 kcal/mol
-----------------------------------------------------------------------
Final Gibbs free energy         ...   -922.93242725 Eh

For completeness - the Gibbs free energy minus the electronic energy
G-E(el)                           ...     -5.17019726 Eh  -3244.34 kcal/mol


The first frequency considered to be a vibration is 6
The total number of vibrations considered is 84


--------------------------
THERMOCHEMISTRY AT 10000.00K
--------------------------

Temperature         ... 10000.00 K
Pressure            ... 1.00 atm
Total Mass          ... 294.31 AMU

Throughout the following assumptions are being made:
  (1) The electronic state is orbitally nondegenerate
  (2) There are no thermally accessible electronically excited states
  (3) Hindered rotations indicated by low frequency modes are not
      treated as such but are treated as vibrations and this may
      cause some error
  (4) All equations used are the standard statistical mechanics
      equations for an ideal gas
  (5) All vibrations are strictly harmonic

freq.      42.97  E(vib)   ...      19.81 
freq.      78.24  E(vib)   ...      19.76 
freq.     128.02  E(vib)   ...      19.69 
freq.     156.43  E(vib)   ...      19.65 
freq.     214.68  E(vib)   ...      19.57 
freq.     214.82  E(vib)   ...      19.57 
freq.     278.51  E(vib)   ...      19.48 
freq.     299.02  E(vib)   ...      19.45 
freq.     324.24  E(vib)   ...      19.41 
freq.     351.01  E(vib)   ...      19.37 
freq.     354.24  E(vib)   ...      19.37 
freq.     360.54  E(vib)   ...      19.36 
freq.     392.72  E(vib)   ...      19.32 
freq.     413.44  E(vib)   ...      19.29 
freq.     424.12  E(vib)   ...      19.27 
freq.     427.37  E(vib)   ...      19.27 
freq.     450.27  E(vib)   ...      19.24 
freq.     461.13  E(vib)   ...      19.22 
freq.     471.53  E(vib)   ...      19.21 
freq.     498.13  E(vib)   ...      19.17 
freq.     501.71  E(vib)   ...      19.16 
freq.     505.15  E(vib)   ...      19.16 
freq.     534.94  E(vib)   ...      19.12 
freq.     538.30  E(vib)   ...      19.11 
freq.     545.37  E(vib)   ...      19.10 
freq.     579.84  E(vib)   ...      19.06 
freq.     591.82  E(vib)   ...      19.04 
freq.     609.49  E(vib)   ...      19.01 
freq.     657.28  E(vib)   ...      18.95 
freq.     678.61  E(vib)   ...      18.92 
freq.     683.14  E(vib)   ...      18.91 
freq.     706.88  E(vib)   ...      18.88 
freq.     738.41  E(vib)   ...      18.84 
freq.     785.94  E(vib)   ...      18.77 
freq.     804.43  E(vib)   ...      18.74 
freq.     819.79  E(vib)   ...      18.72 
freq.     825.49  E(vib)   ...      18.72 
freq.     827.54  E(vib)   ...      18.71 
freq.     850.31  E(vib)   ...      18.68 
freq.     853.11  E(vib)   ...      18.68 
freq.     858.07  E(vib)   ...      18.67 
freq.     876.51  E(vib)   ...      18.65 
freq.     889.23  E(vib)   ...      18.63 
freq.     962.54  E(vib)   ...      18.53 
freq.     988.33  E(vib)   ...      18.49 
freq.     996.15  E(vib)   ...      18.48 
freq.     997.56  E(vib)   ...      18.48 
freq.    1016.26  E(vib)   ...      18.46 
freq.    1096.74  E(vib)   ...      18.35 
freq.    1131.63  E(vib)   ...      18.30 
freq.    1148.54  E(vib)   ...      18.28 
freq.    1157.82  E(vib)   ...      18.26 
freq.    1192.06  E(vib)   ...      18.22 
freq.    1208.87  E(vib)   ...      18.19 
freq.    1218.92  E(vib)   ...      18.18 
freq.    1248.80  E(vib)   ...      18.14 
freq.    1252.21  E(vib)   ...      18.14 
freq.    1259.86  E(vib)   ...      18.13 
freq.    1312.03  E(vib)   ...      18.06 
freq.    1326.39  E(vib)   ...      18.04 
freq.    1329.68  E(vib)   ...      18.03 
freq.    1360.26  E(vib)   ...      17.99 
freq.    1374.98  E(vib)   ...      17.97 
freq.    1389.85  E(vib)   ...      17.95 
freq.    1406.97  E(vib)   ...      17.93 
freq.    1408.73  E(vib)   ...      17.93 
freq.    1461.61  E(vib)   ...      17.86 
freq.    1471.92  E(vib)   ...      17.84 
freq.    1493.45  E(vib)   ...      17.81 
freq.    1511.50  E(vib)   ...      17.79 
freq.    1550.22  E(vib)   ...      17.74 
freq.    1599.59  E(vib)   ...      17.67 
freq.    1617.78  E(vib)   ...      17.65 
freq.    1648.97  E(vib)   ...      17.61 
freq.    1661.97  E(vib)   ...      17.59 
freq.    1718.07  E(vib)   ...      17.52 
freq.    2133.42  E(vib)   ...      16.98 
freq.    2154.76  E(vib)   ...      16.95 
freq.    3191.58  E(vib)   ...      15.66 
freq.    3205.88  E(vib)   ...      15.64 
freq.    3218.59  E(vib)   ...      15.63 
freq.    3232.41  E(vib)   ...      15.61 
freq.    3241.16  E(vib)   ...      15.60 
freq.    3246.72  E(vib)   ...      15.59 

------------
INNER ENERGY
------------

The inner energy is: U= E(el) + E(ZPE) + E(vib) + E(rot) + E(trans)
    E(el)   - is the total energy from the electronic structure calculation
              = E(kin-el) + E(nuc-el) + E(el-el) + E(nuc-nuc)
    E(ZPE)  - the the zero temperature vibrational energy from the frequency calculation
    E(vib)  - the the finite temperature correction to E(ZPE) due to population
              of excited vibrational states
    E(rot)  - is the rotational thermal energy
    E(trans)- is the translational thermal energy

Summary of contributions to the inner energy U:
Electronic energy                ...   -917.76222999 Eh
Zero point energy                ...      0.20445993 Eh     128.30 kcal/mol
Thermal vibrational correction   ...      2.46361575 Eh    1545.94 kcal/mol
Thermal rotational correction    ...      0.04750198 Eh      29.81 kcal/mol
Thermal translational correction ...      0.04750198 Eh      29.81 kcal/mol
-----------------------------------------------------------------------
Total thermal energy                   -914.99915035 Eh


Summary of corrections to the electronic energy:
(perhaps to be used in another calculation)
Total thermal correction                  2.55861971 Eh    1605.55 kcal/mol
Non-thermal (ZPE) correction              0.20445993 Eh     128.30 kcal/mol
-----------------------------------------------------------------------
Total correction                          2.76307964 Eh    1733.85 kcal/mol


--------
ENTHALPY
--------

The enthalpy is H = U + kB*T
                kB is Boltzmann's constant
Total free energy                 ...   -914.99915035 Eh 
Thermal Enthalpy correction       ...      0.03166893 Eh      19.87 kcal/mol
-----------------------------------------------------------------------
Total Enthalpy                    ...   -914.96748143 Eh


Note: Only C1 symmetry has been detected, increase convergence thresholds 
      if your molecule has a higher symmetry. Symmetry factor of 1.0 is   
      used for the rotational entropy correction. 
 

Note: Rotational entropy computed according to Herzberg 
Infrared and Raman Spectra, Chapter V,1, Van Nostrand Reinhold, 1945 
Point Group:  C1, Symmetry Number:   1  
Rotational constants in cm-1:     0.012072     0.011517     0.005894 

Vibrational entropy computed according to the QRRHO of S. Grimme
Chem.Eur.J. 2012 18 9955


-------
ENTROPY
-------

The entropy contributions are T*S = T*(S(el)+S(vib)+S(rot)+S(trans))
     S(el)   - electronic entropy
     S(vib)  - vibrational entropy
     S(rot)  - rotational entropy
     S(trans)- translational entropy
The entropies will be listed as multiplied by the temperature to get
units of energy

Electronic entropy                ...      0.00000000 Eh      0.00 kcal/mol
Vibrational entropy               ...      8.20337799 Eh   5147.69 kcal/mol
Rotational entropy                ...      0.70776445 Eh    444.13 kcal/mol
Translational entropy             ...      0.96232531 Eh    603.87 kcal/mol
-----------------------------------------------------------------------
Final entropy term                ...      9.87346774 Eh   6195.68 kcal/mol

In case the symmetry of your molecule has not been determined correctly
or in case you have a reason to use a different symmetry number we print 
out the resulting rotational entropy values for sn=1,12 :
 --------------------------------------------------------
|  sn= 1 | S(rot)=       0.70776445 Eh    444.13 kcal/mol|
|  sn= 2 | S(rot)=       0.68581387 Eh    430.35 kcal/mol|
|  sn= 3 | S(rot)=       0.67297361 Eh    422.30 kcal/mol|
|  sn= 4 | S(rot)=       0.66386330 Eh    416.58 kcal/mol|
|  sn= 5 | S(rot)=       0.65679679 Eh    412.15 kcal/mol|
|  sn= 6 | S(rot)=       0.65102304 Eh    408.52 kcal/mol|
|  sn= 7 | S(rot)=       0.64614139 Eh    405.46 kcal/mol|
|  sn= 8 | S(rot)=       0.64191272 Eh    402.81 kcal/mol|
|  sn= 9 | S(rot)=       0.63818277 Eh    400.46 kcal/mol|
|  sn=10 | S(rot)=       0.63484622 Eh    398.37 kcal/mol|
|  sn=11 | S(rot)=       0.63182794 Eh    396.48 kcal/mol|
|  sn=12 | S(rot)=       0.62907246 Eh    394.75 kcal/mol|
 --------------------------------------------------------


-------------------
GIBBS FREE ENERGY
-------------------

The Gibbs free energy is G = H - T*S

Total enthalpy                    ...   -914.96748143 Eh 
Total entropy correction          ...     -9.87346774 Eh  -6195.68 kcal/mol
-----------------------------------------------------------------------
Final Gibbs free energy         ...   -924.84094917 Eh

For completeness - the Gibbs free energy minus the electronic energy
G-E(el)                           ...     -7.07871918 Eh  -4441.95 kcal/mol


Timings for individual modules:

Sum of individual times         ...    17924.059 sec (= 298.734 min)
GTO integral calculation        ...       32.037 sec (=   0.534 min)   0.2 %
SCF iterations                  ...     4971.715 sec (=  82.862 min)  27.7 %
SCF Gradient evaluation         ...     1224.131 sec (=  20.402 min)   6.8 %
Geometry relaxation             ...        5.576 sec (=   0.093 min)   0.0 %
Analytical frequency calculation...    11690.600 sec (= 194.843 min)  65.2 %
                             ****ORCA TERMINATED NORMALLY****
TOTAL RUN TIME: 0 days 4 hours 58 minutes 55 seconds 623 msec
