
                                 *****************
                                 * O   R   C   A *
                                 *****************

                                            #,                                       
                                            ###                                      
                                            ####                                     
                                            #####                                    
                                            ######                                   
                                           ########,                                 
                                     ,,################,,,,,                         
                               ,,#################################,,                 
                          ,,##########################################,,             
                       ,#########################################, ''#####,          
                    ,#############################################,,   '####,        
                  ,##################################################,,,,####,       
                ,###########''''           ''''###############################       
              ,#####''   ,,,,##########,,,,          '''####'''          '####       
            ,##' ,,,,###########################,,,                        '##       
           ' ,,###''''                  '''############,,,                           
         ,,##''                                '''############,,,,        ,,,,,,###''
      ,#''                                            '''#######################'''  
     '                                                          ''''####''''         
             ,#######,   #######,   ,#######,      ##                                
            ,#'     '#,  ##    ##  ,#'     '#,    #''#        ######   ,####,        
            ##       ##  ##   ,#'  ##            #'  '#       #        #'  '#        
            ##       ##  #######   ##           ,######,      #####,   #    #        
            '#,     ,#'  ##    ##  '#,     ,#' ,#      #,         ##   #,  ,#        
             '#######'   ##     ##  '#######'  #'      '#     #####' # '####'        



                  #######################################################
                  #                        -***-                        #
                  #          Department of theory and spectroscopy      #
                  #    Directorship and core code : Frank Neese         #
                  #        Max Planck Institute fuer Kohlenforschung    #
                  #                Kaiser Wilhelm Platz 1               #
                  #                 D-45470 Muelheim/Ruhr               #
                  #                      Germany                        #
                  #                                                     #
                  #                  All rights reserved                #
                  #                        -***-                        #
                  #######################################################



                         Program Version 5.0.4 -  RELEASE  -

 With contributions from (in alphabetic order):
   Daniel Aravena         : Magnetic Suceptibility
   Michael Atanasov       : Ab Initio Ligand Field Theory (pilot matlab implementation)
   Alexander A. Auer      : GIAO ZORA, VPT2 properties, NMR spectrum
   Ute Becker             : Parallelization
   Giovanni Bistoni       : ED, misc. LED, open-shell LED, HFLD
   Martin Brehm           : Molecular dynamics
   Dmytro Bykov           : SCF Hessian
   Vijay G. Chilkuri      : MRCI spin determinant printing, contributions to CSF-ICE
   Dipayan Datta          : RHF DLPNO-CCSD density
   Achintya Kumar Dutta   : EOM-CC, STEOM-CC
   Dmitry Ganyushin       : Spin-Orbit,Spin-Spin,Magnetic field MRCI
   Miquel Garcia          : C-PCM and meta-GGA Hessian, CC/C-PCM, Gaussian charge scheme
   Yang Guo               : DLPNO-NEVPT2, F12-NEVPT2, CIM, IAO-localization
   Andreas Hansen         : Spin unrestricted coupled pair/coupled cluster methods
   Benjamin Helmich-Paris : MC-RPA, TRAH-SCF, COSX integrals
   Lee Huntington         : MR-EOM, pCC
   Robert Izsak           : Overlap fitted RIJCOSX, COSX-SCS-MP3, EOM
   Marcus Kettner         : VPT2
   Christian Kollmar      : KDIIS, OOCD, Brueckner-CCSD(T), CCSD density, CASPT2, CASPT2-K
   Simone Kossmann        : Meta GGA functionals, TD-DFT gradient, OOMP2, MP2 Hessian
   Martin Krupicka        : Initial AUTO-CI
   Lucas Lang             : DCDCAS
   Marvin Lechner         : AUTO-CI (C++ implementation), FIC-MRCC
   Dagmar Lenk            : GEPOL surface, SMD
   Dimitrios Liakos       : Extrapolation schemes; Compound Job, initial MDCI parallelization
   Dimitrios Manganas     : Further ROCIS development; embedding schemes
   Dimitrios Pantazis     : SARC Basis sets
   Anastasios Papadopoulos: AUTO-CI, single reference methods and gradients
   Taras Petrenko         : DFT Hessian,TD-DFT gradient, ASA, ECA, R-Raman, ABS, FL, XAS/XES, NRVS
   Peter Pinski           : DLPNO-MP2, DLPNO-MP2 Gradient
   Christoph Reimann      : Effective Core Potentials
   Marius Retegan         : Local ZFS, SOC
   Christoph Riplinger    : Optimizer, TS searches, QM/MM, DLPNO-CCSD(T), (RO)-DLPNO pert. Triples
   Tobias Risthaus        : Range-separated hybrids, TD-DFT gradient, RPA, STAB
   Michael Roemelt        : Original ROCIS implementation
   Masaaki Saitow         : Open-shell DLPNO-CCSD energy and density
   Barbara Sandhoefer     : DKH picture change effects
   Avijit Sen             : IP-ROCIS
   Kantharuban Sivalingam : CASSCF convergence, NEVPT2, FIC-MRCI
   Bernardo de Souza      : ESD, SOC TD-DFT
   Georgi Stoychev        : AutoAux, RI-MP2 NMR, DLPNO-MP2 response
   Willem Van den Heuvel  : Paramagnetic NMR
   Boris Wezisla          : Elementary symmetry handling
   Frank Wennmohs         : Technical directorship


 We gratefully acknowledge several colleagues who have allowed us to
 interface, adapt or use parts of their codes:
   Stefan Grimme, W. Hujo, H. Kruse, P. Pracht,  : VdW corrections, initial TS optimization,
                  C. Bannwarth, S. Ehlert          DFT functionals, gCP, sTDA/sTD-DF
   Ed Valeev, F. Pavosevic, A. Kumar             : LibInt (2-el integral package), F12 methods
   Garnet Chan, S. Sharma, J. Yang, R. Olivares  : DMRG
   Ulf Ekstrom                                   : XCFun DFT Library
   Mihaly Kallay                                 : mrcc  (arbitrary order and MRCC methods)
   Jiri Pittner, Ondrej Demel                    : Mk-CCSD
   Frank Weinhold                                : gennbo (NPA and NBO analysis)
   Christopher J. Cramer and Donald G. Truhlar   : smd solvation model
   Lars Goerigk                                  : TD-DFT with DH, B97 family of functionals
   V. Asgeirsson, H. Jonsson                     : NEB implementation
   FAccTs GmbH                                   : IRC, NEB, NEB-TS, DLPNO-Multilevel, CI-OPT
                                                   MM, QMMM, 2- and 3-layer-ONIOM, Crystal-QMMM,
                                                   LR-CPCM, SF, NACMEs, symmetry and pop. for TD-DFT,
                                                   nearIR, NL-DFT gradient (VV10), updates on ESD,
                                                   ML-optimized integration grids
   S Lehtola, MJT Oliveira, MAL Marques          : LibXC Library
   Liviu Ungur et al                             : ANISO software


 Your calculation uses the libint2 library for the computation of 2-el integrals
 For citations please refer to: http://libint.valeyev.net

 Your ORCA version has been built with support for libXC version: 5.1.0
 For citations please refer to: https://tddft.org/programs/libxc/

 This ORCA versions uses:
   CBLAS   interface :  Fast vector & matrix operations
   LAPACKE interface :  Fast linear algebra routines
   Shared memory     :  Shared parallel matrices


XCFun DFT library Copyright 2009-2010 Ulf Ekstrom and contributors.
See http://admol.org/xcfun for more information.
This is free software; see the source code for copying conditions.
There is ABSOLUTELY NO WARRANTY; not even for MERCHANTABILITY or FITNESS FOR A PARTICULAR PURPOSE.
For details see the documentation.
Scientific users of this library should cite U. Ekstrom, L. Visscher, R. Bast, A. J. Thorvaldsen and K. Ruud;
J.Chem.Theor.Comp. 2010, DOI: 10.1021/ct100117s
XCFun Version 0.99 

================================================================================

----- Orbital basis set information -----
Your calculation utilizes the basis: def2-TZVP
   F. Weigend and R. Ahlrichs, Phys. Chem. Chem. Phys. 7, 3297 (2005).

----- AuxJ basis set information -----
Your calculation utilizes the auxiliary basis: def2/J
   F. Weigend, Phys. Chem. Chem. Phys. 8, 1057 (2006).

================================================================================
                                        WARNINGS
                       Please study these warnings very carefully!
================================================================================


WARNING: Geometry Optimization
  ===> : Switching off AutoStart
         For restart on a previous wavefunction, please use MOREAD

WARNING: Minnesota functionals are quite sensitive to the integration grid.
         see SE Wheeler, KN Houk, JCTC 2010, 6, 395,
             N Mardirossian, M Head-Gordon, JCTC 2016, 12, 4303.
         DEFGRID3 seems to be a minimum grid for reliable results with these functionals!
  ===> : Please increase the integration grid!


INFO   : the flag for use of the SHARK integral package has been found!

================================================================================
                                       INPUT FILE
================================================================================
NAME = eight_five.inp
|  1> !M062X def2-tzvp PAL4 TIGHTOPT FREQ
|  2> 
|  3> %freq
|  4> Temp 298.15,10,20,50,100,6000,8000,10000
|  5> end
|  6> 
|  7> %geom
|  8> maxiter 5000
|  9> end
| 10> 
| 11> * xyz 0 1
| 12>   C   2.45791983499341     -2.80268931379768     -0.00000793519644
| 13>   C   1.28608761308438     -3.49706883370209     -0.00003643606214
| 14>   C   0.03470547919465     -2.82650100714450     -0.00011895547508
| 15>   C   -1.19909611030651     -3.52926406052669     -0.00014738304165
| 16>   C   -2.38727532547159     -2.86387815648029     -0.00022974228995
| 17>   C   -2.43307513493588     -1.44447575303296     -0.00027036473986
| 18>   C   -3.65942351028343     -0.73056692575933     -0.00034869983218
| 19>   C   -3.68143184744779      0.63183680863156     -0.00038756598292
| 20>   C   -2.47654311552349      1.38171086633990     -0.00035715694906
| 21>   C   -2.47435650264592      2.81046534061019     -0.00039831731937
| 22>   C   -1.28561443050281      3.43802142880253     -0.00036151343355
| 23>   C   -0.02057223287027      2.83388218261706     -0.00029010794623
| 24>   C   1.21086686736911      3.53893902602452     -0.00025402239824
| 25>   C   2.39489324957599      2.86551829309080     -0.00018393811888
| 26>   C   2.43517090494280      1.44582754720977     -0.00014049013964
| 27>   C   3.65975900430544      0.72697243056351     -0.00006992784603
| 28>   C   3.67546036802878     -0.63516446298208     -0.00002698908555
| 29>   C   2.46811813995863     -1.38295180399054     -0.00005240219282
| 30>   C   1.24061543792698     -0.69496199420878     -0.00012711748511
| 31>   C   1.22474219035332      0.72698621586077     -0.00017741356338
| 32>   C   -0.01566516709535      1.42103164152461     -0.00024506128700
| 33>   C   -1.24356348643455      0.69923344199718     -0.00028346088976
| 34>   C   -1.22400277498297     -0.72338676000015     -0.00023734960533
| 35>   C   0.01693487392421     -1.41913103104816     -0.00016297130775
| 36>   H   3.40501735040542     -3.32906588787472      0.00005627444163
| 37>   H   1.29296308352502     -4.58060438188898      0.00000142672494
| 38>   H   -1.17896310310274     -4.61257131284734     -0.00011513591155
| 39>   H   -3.32129405982821     -3.41317602901623     -0.00025227227744
| 40>   H   -4.62408845924854      1.16575491725399     -0.00044556872067
| 41>   H   -3.41518424261775      3.34878172120577     -0.00045725814046
| 42>   H   1.18854626437870      4.62103847897618     -0.00028959104089
| 43>   H   3.33130215861300      3.41052642430950     -0.00015763965944
| 44>   H   4.58800492413600      1.28586263822177     -0.00004835142171
| 45>   H   4.61660270482137     -1.17213723898180      0.00002811587814
| 46>   **                         ****END OF INPUT****
================================================================================

                       *****************************
                       * Geometry Optimization Run *
                       *****************************

Geometry optimization settings:
Update method            Update   .... BFGS
Choice of coordinates    CoordSys .... Z-matrix Internals
Initial Hessian          InHess   .... Almoef's Model

Convergence Tolerances:
Energy Change            TolE     ....  1.0000e-06 Eh
Max. Gradient            TolMAXG  ....  1.0000e-04 Eh/bohr
RMS Gradient             TolRMSG  ....  3.0000e-05 Eh/bohr
Max. Displacement        TolMAXD  ....  1.0000e-03 bohr
RMS Displacement         TolRMSD  ....  6.0000e-04 bohr
Strict Convergence                ....  False
------------------------------------------------------------------------------
                        ORCA OPTIMIZATION COORDINATE SETUP
------------------------------------------------------------------------------

The optimization will be done in new redundant internal coordinates
Making redundant internal coordinates   ...  (new redundants) done
Evaluating the initial hessian          ...  (Almloef) done
Evaluating the coordinates              ...  done
Calculating the B-matrix                .... done
Calculating the G-matrix                .... done
Diagonalizing the G-matrix              .... done
The first mode is                       ....  124
The number of degrees of freedom        ....   96

    -----------------------------------------------------------------
                    Redundant Internal Coordinates


    -----------------------------------------------------------------
         Definition                    Initial Value    Approx d2E/dq
    -----------------------------------------------------------------
      1. B(C   1,C   0)                  1.3621         0.692196   
      2. B(C   2,C   1)                  1.4197         0.560163   
      3. B(C   3,C   2)                  1.4199         0.559784   
      4. B(C   4,C   3)                  1.3618         0.692986   
      5. B(C   5,C   4)                  1.4201         0.559307   
      6. B(C   6,C   5)                  1.4190         0.561631   
      7. B(C   7,C   6)                  1.3626         0.691008   
      8. B(C   8,C   7)                  1.4192         0.561288   
      9. B(C   9,C   8)                  1.4288         0.541883   
     10. B(C  10,C   9)                  1.3442         0.739220   
     11. B(C  11,C  10)                  1.4019         0.598077   
     12. B(C  12,C  11)                  1.4190         0.561667   
     13. B(C  13,C  12)                  1.3621         0.692140   
     14. B(C  14,C  13)                  1.4203         0.559059   
     15. B(C  15,C  14)                  1.4200         0.559620   
     16. B(C  16,C  15)                  1.3622         0.691907   
     17. B(C  17,C  16)                  1.4202         0.559263   
     18. B(C  17,C   0)                  1.4198         0.560062   
     19. B(C  18,C  17)                  1.4072         0.586630   
     20. B(C  19,C  18)                  1.4220         0.555426   
     21. B(C  19,C  14)                  1.4078         0.585271   
     22. B(C  20,C  19)                  1.4214         0.556776   
     23. B(C  20,C  11)                  1.4129         0.574471   
     24. B(C  21,C  20)                  1.4243         0.550758   
     25. B(C  21,C   8)                  1.4093         0.582117   
     26. B(C  22,C  21)                  1.4228         0.553963   
     27. B(C  22,C   5)                  1.4078         0.585305   
     28. B(C  23,C  22)                  1.4227         0.554138   
     29. B(C  23,C  18)                  1.4219         0.555694   
     30. B(C  23,C   2)                  1.4075         0.585932   
     31. B(H  24,C   0)                  1.0835         0.368744   
     32. B(H  25,C   1)                  1.0836         0.368724   
     33. B(H  26,C   3)                  1.0835         0.368810   
     34. B(H  27,C   4)                  1.0836         0.368710   
     35. B(H  28,C   7)                  1.0834         0.368991   
     36. B(H  29,C   9)                  1.0839         0.368197   
     37. B(H  30,C  12)                  1.0823         0.370391   
     38. B(H  31,C  13)                  1.0835         0.368850   
     39. B(H  32,C  15)                  1.0835         0.368786   
     40. B(H  33,C  16)                  1.0836         0.368729   
     41. A(C  17,C   0,H  24)          118.6528         0.348293   
     42. A(C   1,C   0,C  17)          121.0608         0.434729   
     43. A(C   1,C   0,H  24)          120.2864         0.361028   
     44. A(C   0,C   1,H  25)          120.2857         0.361025   
     45. A(C   2,C   1,H  25)          118.5487         0.348301   
     46. A(C   0,C   1,C   2)          121.1656         0.434743   
     47. A(C   3,C   2,C  23)          118.9421         0.421892   
     48. A(C   1,C   2,C  23)          118.9086         0.421943   
     49. A(C   1,C   2,C   3)          122.1494         0.418521   
     50. A(C   2,C   3,H  26)          118.6008         0.348275   
     51. A(C   4,C   3,H  26)          120.3137         0.361109   
     52. A(C   2,C   3,C   4)          121.0855         0.434779   
     53. A(C   5,C   4,H  27)          118.6117         0.348209   
     54. A(C   3,C   4,H  27)          120.2911         0.361092   
     55. A(C   3,C   4,C   5)          121.0971         0.434712   
     56. A(C   4,C   5,C   6)          122.0536         0.418653   
     57. A(C   6,C   5,C  22)          118.9827         0.422060   
     58. A(C   4,C   5,C  22)          118.9637         0.421748   
     59. A(C   5,C   6,C   7)          121.1310         0.434813   
     60. A(C   6,C   7,C   8)          120.9710         0.434765   
     61. A(C   8,C   7,H  28)          118.5764         0.348461   
     62. A(C   6,C   7,H  28)          120.4526         0.360963   
     63. A(C   7,C   8,C   9)          121.9842         0.416254   
     64. A(C   9,C   8,C  21)          118.8777         0.418964   
     65. A(C   7,C   8,C  21)          119.1382         0.421603   
     66. A(C   8,C   9,H  29)          119.6893         0.346278   
     67. A(C  10,C   9,H  29)          122.3927         0.365012   
     68. A(C   8,C   9,C  10)          117.9180         0.437299   
     69. A(C   9,C  10,C  11)          126.6422         0.445165   
     70. A(C  12,C  11,C  20)          119.5942         0.420659   
     71. A(C  10,C  11,C  20)          115.7265         0.425408   
     72. A(C  10,C  11,C  12)          124.6793         0.423696   
     73. A(C  11,C  12,H  30)          118.6115         0.348723   
     74. A(C  11,C  12,C  13)          120.5776         0.434946   
     75. A(C  13,C  12,H  30)          120.8109         0.361297   
     76. A(C  12,C  13,H  31)          120.1705         0.361040   
     77. A(C  12,C  13,C  14)          121.2544         0.434582   
     78. A(C  14,C  13,H  31)          118.5751         0.348205   
     79. A(C  13,C  14,C  15)          122.0388         0.418352   
     80. A(C  15,C  14,C  19)          118.8814         0.421785   
     81. A(C  13,C  14,C  19)          119.0799         0.421710   
     82. A(C  14,C  15,C  16)          121.0741         0.434634   
     83. A(C  16,C  15,H  32)          120.3914         0.361009   
     84. A(C  14,C  15,H  32)          118.5345         0.348254   
     85. A(C  17,C  16,H  33)          118.5202         0.348208   
     86. A(C  15,C  16,C  17)          121.1123         0.434585   
     87. A(C  15,C  16,H  33)          120.3675         0.361000   
     88. A(C  16,C  17,C  18)          118.9576         0.421912   
     89. A(C   0,C  17,C  18)          118.8582         0.422020   
     90. A(C   0,C  17,C  16)          122.1842         0.418438   
     91. A(C  17,C  18,C  19)          119.9093         0.421394   
     92. A(C  19,C  18,C  23)          119.9773         0.417343   
     93. A(C  17,C  18,C  23)          120.1134         0.421430   
     94. A(C  18,C  19,C  20)          119.8679         0.417487   
     95. A(C  14,C  19,C  20)          120.0667         0.421402   
     96. A(C  14,C  19,C  18)          120.0654         0.421219   
     97. A(C  11,C  20,C  19)          119.4273         0.420004   
     98. A(C  19,C  20,C  21)          120.3233         0.416860   
     99. A(C  11,C  20,C  21)          120.2494         0.419190   
    100. A(C  20,C  21,C  22)          119.6606         0.416485   
    101. A(C   8,C  21,C  22)          119.7531         0.420615   
    102. A(C   8,C  21,C  20)          120.5863         0.420180   
    103. A(C  21,C  22,C  23)          120.0654         0.416938   
    104. A(C   5,C  22,C  23)          119.9106         0.421049   
    105. A(C   5,C  22,C  21)          120.0240         0.421025   
    106. A(C  18,C  23,C  22)          120.1055         0.417170   
    107. A(C   2,C  23,C  22)          120.0010         0.421129   
    108. A(C   2,C  23,C  18)          119.8934         0.421340   
    109. D(C   2,C   1,C   0,C  17)      0.0003         0.033683   
    110. D(H  25,C   1,C   0,C  17)   -179.9998         0.033683   
    111. D(H  25,C   1,C   0,H  24)     -0.0002         0.033683   
    112. D(C   2,C   1,C   0,H  24)    179.9999         0.033683   
    113. D(C  23,C   2,C   1,C   0)     -0.0004         0.021494   
    114. D(C   3,C   2,C   1,C   0)   -179.9999         0.021494   
    115. D(C  23,C   2,C   1,H  25)    179.9997         0.021494   
    116. D(C   3,C   2,C   1,H  25)      0.0003         0.021494   
    117. D(H  26,C   3,C   2,C   1)     -0.0006         0.021464   
    118. D(H  26,C   3,C   2,C  23)    179.9999         0.021464   
    119. D(C   4,C   3,C   2,C  23)      0.0007         0.021464   
    120. D(C   4,C   3,C   2,C   1)   -179.9999         0.021464   
    121. D(H  27,C   4,C   3,C   2)    179.9999         0.033766   
    122. D(H  27,C   4,C   3,H  26)      0.0007         0.033766   
    123. D(C   5,C   4,C   3,H  26)    179.9999         0.033766   
    124. D(C   5,C   4,C   3,C   2)     -0.0009         0.033766   
    125. D(C  22,C   5,C   4,H  27)    179.9998         0.021426   
    126. D(C   6,C   5,C   4,H  27)     -0.0005         0.021426   
    127. D(C  22,C   5,C   4,C   3)      0.0006         0.021426   
    128. D(C   6,C   5,C   4,C   3)   -179.9996         0.021426   
    129. D(C   7,C   6,C   5,C  22)     -0.0002         0.019626   
    130. D(C   7,C   6,C   5,C   4)   -180.0000         0.019626   
    131. D(H  28,C   7,C   6,C   5)   -179.9999         0.030393   
    132. D(C   8,C   7,C   6,C   5)      0.0003         0.030393   
    133. D(C  21,C   8,C   7,H  28)   -179.9999         0.021584   
    134. D(C  21,C   8,C   7,C   6)     -0.0001         0.021584   
    135. D(C   9,C   8,C   7,H  28)      0.0001         0.021584   
    136. D(C   9,C   8,C   7,C   6)    179.9999         0.021584   
    137. D(H  29,C   9,C   8,C   7)     -0.0002         0.020068   
    138. D(C  10,C   9,C   8,C  21)     -0.0001         0.020068   
    139. D(C  10,C   9,C   8,C   7)    179.9998         0.020068   
    140. D(H  29,C   9,C   8,C  21)    179.9999         0.020068   
    141. D(C  11,C  10,C   9,H  29)   -179.9998         0.035175   
    142. D(C  11,C  10,C   9,C   8)      0.0002         0.035175   
    143. D(C  20,C  11,C  10,C   9)     -0.0004         0.022365   
    144. D(C  12,C  11,C  10,C   9)    180.0000         0.022365   
    145. D(H  30,C  12,C  11,C  20)    180.0000         0.021614   
    146. D(H  30,C  12,C  11,C  10)     -0.0004         0.021614   
    147. D(C  13,C  12,C  11,C  20)      0.0004         0.021614   
    148. D(C  13,C  12,C  11,C  10)    180.0000         0.021614   
    149. D(H  31,C  13,C  12,H  30)      0.0003         0.033677   
    150. D(H  31,C  13,C  12,C  11)    179.9999         0.033677   
    151. D(C  14,C  13,C  12,H  30)   -179.9998         0.033677   
    152. D(C  14,C  13,C  12,C  11)     -0.0002         0.033677   
    153. D(C  19,C  14,C  13,H  31)   -179.9998         0.021406   
    154. D(C  19,C  14,C  13,C  12)      0.0003         0.021406   
    155. D(C  15,C  14,C  13,H  31)     -0.0003         0.021406   
    156. D(C  15,C  14,C  13,C  12)    179.9999         0.021406   
    157. D(H  32,C  15,C  14,C  19)    179.9996         0.021451   
    158. D(H  32,C  15,C  14,C  13)      0.0000         0.021451   
    159. D(C  16,C  15,C  14,C  19)     -0.0005         0.021451   
    160. D(C  16,C  15,C  14,C  13)    179.9999         0.021451   
    161. D(H  33,C  16,C  15,H  32)     -0.0001         0.033652   
    162. D(C  17,C  16,C  15,H  32)    179.9999         0.033652   
    163. D(C  17,C  16,C  15,C  14)      0.0001         0.033652   
    164. D(H  33,C  16,C  15,C  14)   -179.9999         0.033652   
    165. D(C   0,C  17,C  16,H  33)      0.0000         0.021423   
    166. D(C   0,C  17,C  16,C  15)   -180.0000         0.021423   
    167. D(C  18,C  17,C   0,H  24)   -179.9996         0.021486   
    168. D(C  18,C  17,C   0,C   1)     -0.0000         0.021486   
    169. D(C  16,C  17,C   0,H  24)      0.0005         0.021486   
    170. D(C  18,C  17,C  16,C  15)      0.0002         0.021423   
    171. D(C  16,C  17,C   0,C   1)   -179.9999         0.021486   
    172. D(C  18,C  17,C  16,H  33)   -179.9998         0.021423   
    173. D(C  23,C  18,C  17,C  16)    179.9996         0.023669   
    174. D(C  23,C  18,C  17,C   0)     -0.0003         0.023669   
    175. D(C  19,C  18,C  17,C  16)      0.0001         0.023669   
    176. D(C  19,C  18,C  17,C   0)   -179.9998         0.023669   
    177. D(C  20,C  19,C  18,C  23)      0.0009         0.021119   
    178. D(C  20,C  19,C  18,C  17)   -179.9996         0.021119   
    179. D(C  14,C  19,C  18,C  23)    179.9999         0.021119   
    180. D(C  14,C  19,C  18,C  17)     -0.0006         0.021119   
    181. D(C  20,C  19,C  14,C  15)    179.9999         0.023554   
    182. D(C  20,C  19,C  14,C  13)     -0.0006         0.023554   
    183. D(C  18,C  19,C  14,C  15)      0.0008         0.023554   
    184. D(C  18,C  19,C  14,C  13)   -179.9996         0.023554   
    185. D(C  21,C  20,C  19,C  18)     -0.0010         0.021225   
    186. D(C  21,C  20,C  19,C  14)    180.0000         0.021225   
    187. D(C  11,C  20,C  19,C  18)    179.9998         0.021225   
    188. D(C  11,C  20,C  19,C  14)      0.0007         0.021225   
    189. D(C  21,C  20,C  11,C  12)   -179.9999         0.022654   
    190. D(C  21,C  20,C  11,C  10)      0.0005         0.022654   
    191. D(C  19,C  20,C  11,C  12)     -0.0006         0.022654   
    192. D(C  19,C  20,C  11,C  10)    179.9997         0.022654   
    193. D(C  22,C  21,C  20,C  19)      0.0008         0.020753   
    194. D(C  22,C  21,C  20,C  11)   -180.0000         0.020753   
    195. D(C   8,C  21,C  20,C  19)   -179.9997         0.020753   
    196. D(C   8,C  21,C  20,C  11)     -0.0004         0.020753   
    197. D(C  22,C  21,C   8,C   9)    179.9998         0.023289   
    198. D(C  22,C  21,C   8,C   7)     -0.0002         0.023289   
    199. D(C  20,C  21,C   8,C   9)      0.0003         0.023289   
    200. D(C  20,C  21,C   8,C   7)   -179.9997         0.023289   
    201. D(C  23,C  22,C  21,C  20)     -0.0004         0.021004   
    202. D(C  23,C  22,C  21,C   8)    180.0000         0.021004   
    203. D(C   5,C  22,C  21,C  20)    179.9998         0.021004   
    204. D(C   5,C  22,C  21,C   8)      0.0002         0.021004   
    205. D(C  23,C  22,C   5,C   6)   -179.9998         0.023557   
    206. D(C  23,C  22,C   5,C   4)     -0.0001         0.023557   
    207. D(C  21,C  22,C   5,C   6)     -0.0000         0.023557   
    208. D(C  21,C  22,C   5,C   4)    179.9997         0.023557   
    209. D(C  18,C  23,C  22,C  21)      0.0003         0.021017   
    210. D(C   2,C  23,C  22,C  21)   -179.9999         0.021017   
    211. D(C   2,C  23,C  22,C   5)     -0.0002         0.021017   
    212. D(C  22,C  23,C  18,C  19)     -0.0005         0.021140   
    213. D(C  22,C  23,C  18,C  17)    179.9999         0.021140   
    214. D(C   2,C  23,C  18,C  19)    179.9997         0.021140   
    215. D(C   2,C  23,C  18,C  17)      0.0002         0.021140   
    216. D(C  22,C  23,C   2,C   3)     -0.0001         0.023610   
    217. D(C  22,C  23,C   2,C   1)   -179.9996         0.023610   
    218. D(C  18,C  23,C  22,C   5)   -179.9999         0.021017   
    219. D(C  18,C  23,C   2,C   3)    179.9996         0.023610   
    220. D(C  18,C  23,C   2,C   1)      0.0001         0.023610   
    -----------------------------------------------------------------

Number of atoms                         .... 34
Number of degrees of freedom            .... 220

         *************************************************************
         *                GEOMETRY OPTIMIZATION CYCLE   1            *
         *************************************************************
---------------------------------
CARTESIAN COORDINATES (ANGSTROEM)
---------------------------------
  C      2.457920   -2.802689   -0.000008
  C      1.286088   -3.497069   -0.000036
  C      0.034705   -2.826501   -0.000119
  C     -1.199096   -3.529264   -0.000147
  C     -2.387275   -2.863878   -0.000230
  C     -2.433075   -1.444476   -0.000270
  C     -3.659424   -0.730567   -0.000349
  C     -3.681432    0.631837   -0.000388
  C     -2.476543    1.381711   -0.000357
  C     -2.474357    2.810465   -0.000398
  C     -1.285614    3.438021   -0.000362
  C     -0.020572    2.833882   -0.000290
  C      1.210867    3.538939   -0.000254
  C      2.394893    2.865518   -0.000184
  C      2.435171    1.445828   -0.000140
  C      3.659759    0.726972   -0.000070
  C      3.675460   -0.635164   -0.000027
  C      2.468118   -1.382952   -0.000052
  C      1.240615   -0.694962   -0.000127
  C      1.224742    0.726986   -0.000177
  C     -0.015665    1.421032   -0.000245
  C     -1.243563    0.699233   -0.000283
  C     -1.224003   -0.723387   -0.000237
  C      0.016935   -1.419131   -0.000163
  H      3.405017   -3.329066    0.000056
  H      1.292963   -4.580604    0.000001
  H     -1.178963   -4.612571   -0.000115
  H     -3.321294   -3.413176   -0.000252
  H     -4.624088    1.165755   -0.000446
  H     -3.415184    3.348782   -0.000457
  H      1.188546    4.621038   -0.000290
  H      3.331302    3.410526   -0.000158
  H      4.588005    1.285863   -0.000048
  H      4.616603   -1.172137    0.000028

----------------------------
CARTESIAN COORDINATES (A.U.)
----------------------------
  NO LB      ZA    FRAG     MASS         X           Y           Z
   0 C     6.0000    0    12.011    4.644795   -5.296315   -0.000015
   1 C     6.0000    0    12.011    2.430353   -6.608502   -0.000069
   2 C     6.0000    0    12.011    0.065584   -5.341313   -0.000225
   3 C     6.0000    0    12.011   -2.265963   -6.669343   -0.000279
   4 C     6.0000    0    12.011   -4.511297   -5.411945   -0.000434
   5 C     6.0000    0    12.011   -4.597846   -2.729664   -0.000511
   6 C     6.0000    0    12.011   -6.915308   -1.380571   -0.000659
   7 C     6.0000    0    12.011   -6.956898    1.193999   -0.000732
   8 C     6.0000    0    12.011   -4.679988    2.611055   -0.000675
   9 C     6.0000    0    12.011   -4.675856    5.311010   -0.000753
  10 C     6.0000    0    12.011   -2.429459    6.496919   -0.000683
  11 C     6.0000    0    12.011   -0.038876    5.355261   -0.000548
  12 C     6.0000    0    12.011    2.288207    6.687626   -0.000480
  13 C     6.0000    0    12.011    4.525692    5.415045   -0.000348
  14 C     6.0000    0    12.011    4.601806    2.732218   -0.000265
  15 C     6.0000    0    12.011    6.915942    1.373779   -0.000132
  16 C     6.0000    0    12.011    6.945614   -1.200287   -0.000051
  17 C     6.0000    0    12.011    4.664067   -2.613400   -0.000099
  18 C     6.0000    0    12.011    2.344423   -1.313288   -0.000240
  19 C     6.0000    0    12.011    2.314427    1.373805   -0.000335
  20 C     6.0000    0    12.011   -0.029603    2.685361   -0.000463
  21 C     6.0000    0    12.011   -2.349994    1.321360   -0.000536
  22 C     6.0000    0    12.011   -2.313030   -1.367003   -0.000449
  23 C     6.0000    0    12.011    0.032002   -2.681769   -0.000308
  24 H     1.0000    0     1.008    6.434550   -6.291023    0.000106
  25 H     1.0000    0     1.008    2.443346   -8.656088    0.000003
  26 H     1.0000    0     1.008   -2.227917   -8.716497   -0.000218
  27 H     1.0000    0     1.008   -6.276336   -6.449968   -0.000477
  28 H     1.0000    0     1.008   -8.738261    2.202958   -0.000842
  29 H     1.0000    0     1.008   -6.453763    6.328280   -0.000864
  30 H     1.0000    0     1.008    2.246027    8.732497   -0.000547
  31 H     1.0000    0     1.008    6.295249    6.444961   -0.000298
  32 H     1.0000    0     1.008    8.670073    2.429928   -0.000091
  33 H     1.0000    0     1.008    8.724115   -2.215018    0.000053

--------------------------------
INTERNAL COORDINATES (ANGSTROEM)
--------------------------------
 C      0   0   0     0.000000000000     0.00000000     0.00000000
 C      1   0   0     1.362113679096     0.00000000     0.00000000
 C      2   1   0     1.419724783837   121.16560922     0.00000000
 C      3   2   1     1.419909247897   122.14936829   180.00012514
 C      4   3   2     1.361803310114   121.08549338   180.00014219
 C      5   4   3     1.420141122251   121.09714964     0.00000000
 C      6   5   4     1.419012388076   122.05359964   180.00035250
 C      7   6   5     1.362581485232   121.13095823   180.00004575
 C      8   7   6     1.419178621480   120.97098694     0.00000000
 C      9   8   7     1.428756148094   121.98415257   179.99993018
 C     10   9   8     1.344222585462   117.91798224   179.99982824
 C     11  10   9     1.401897284280   126.64222024     0.00000000
 C     12  11  10     1.418995211879   124.67934702   179.99996824
 C     13  12  11     1.362135809022   120.57756794   179.99997748
 C     14  13  12     1.420261984758   121.25435076     0.00000000
 C     15  14  13     1.419988977707   122.03878309   179.99987718
 C     16  15  14     1.362227386094   121.07411591   179.99989307
 C      1   2   3     1.419774138430   121.06079764     0.00000000
 C     18   1   2     1.407157726568   118.85816447     0.00000000
 C     15  14  13     1.407789236399   119.07985977     0.00000000
 C     12  11  10     1.412859063314   115.72648181     0.00000000
 C      9   8   7     1.409260162609   119.13818147     0.00000000
 C      6   5   4     1.407773173691   118.96366889     0.00000000
 C      3   2   1     1.407482165417   118.90857994     0.00000000
 H      1   2   3     1.083543264277   120.28639352   179.99993510
 H      2   1   3     1.083557362447   120.28567582   179.99985180
 H      4   3   2     1.083494320220   118.60077089     0.00000000
 H      5   4   3     1.083567787178   120.29111832   179.99989480
 H      8   7   6     1.083360529949   120.45257468   180.00011038
 H     10   9   8     1.083947122969   119.68934415     0.00000000
 H     13  12  11     1.082329634012   118.61148842     0.00000000
 H     14  13  12     1.083464585813   120.17050164   179.99994437
 H     16  15  14     1.083512229910   118.53445959     0.00000000
 H     17  16  15     1.083553719621   120.36752368   180.00008314

---------------------------
INTERNAL COORDINATES (A.U.)
---------------------------
 C      0   0   0     0.000000000000     0.00000000     0.00000000
 C      1   0   0     2.574021816758     0.00000000     0.00000000
 C      2   1   0     2.682891026993   121.16560922     0.00000000
 C      3   2   1     2.683239613547   122.14936829   180.00012514
 C      4   3   2     2.573435304383   121.08549338   180.00014219
 C      5   4   3     2.683677792575   121.09714964     0.00000000
 C      6   5   4     2.681544794105   122.05359964   180.00035250
 C      7   6   5     2.574905842241   121.13095823   180.00004575
 C      8   7   6     2.681858929714   120.97098694     0.00000000
 C      9   8   7     2.699957832055   121.98415257   179.99993018
 C     10   9   8     2.540212549554   117.91798224   179.99982824
 C     11  10   9     2.649201935177   126.64222024     0.00000000
 C     12  11  10     2.681512335797   124.67934702   179.99996824
 C     13  12  11     2.574063636258   120.57756794   179.99997748
 C     14  13  12     2.683906189613   121.25435076     0.00000000
 C     15  14  13     2.683390281052   122.03878309   179.99987718
 C     16  15  14     2.574236691845   121.07411591   179.99989307
 C      1   2   3     2.682984293657   121.06079764     0.00000000
 C     18   1   2     2.659142730445   118.85816447     0.00000000
 C     15  14  13     2.660336111077   119.07985977     0.00000000
 C     12  11  10     2.669916695492   115.72648181     0.00000000
 C      9   8   7     2.663115758776   119.13818147     0.00000000
 C      6   5   4     2.660305756958   118.96366889     0.00000000
 C      3   2   1     2.659755831016   118.90857994     0.00000000
 H      1   2   3     2.047600023738   120.28639352   179.99993510
 H      2   1   3     2.047626665418   120.28567582   179.99985180
 H      4   3   2     2.047507532875   118.60077089     0.00000000
 H      5   4   3     2.047646365305   120.29111832   179.99989480
 H      8   7   6     2.047254705903   120.45257468   180.00011038
 H     10   9   8     2.048363206063   119.68934415     0.00000000
 H     13  12  11     2.045306594911   118.61148842     0.00000000
 H     14  13  12     2.047451342988   120.17050164   179.99994437
 H     16  15  14     2.047541377284   118.53445959     0.00000000
 H     17  16  15     2.047619781476   120.36752368   180.00008314

---------------------
BASIS SET INFORMATION
---------------------
There are 2 groups of distinct atoms

 Group   1 Type C   : 11s6p2d1f contracted to 5s3p2d1f pattern {62111/411/11/1}
 Group   2 Type H   : 5s1p contracted to 3s1p pattern {311/1}

Atom   0C    basis set group =>   1
Atom   1C    basis set group =>   1
Atom   2C    basis set group =>   1
Atom   3C    basis set group =>   1
Atom   4C    basis set group =>   1
Atom   5C    basis set group =>   1
Atom   6C    basis set group =>   1
Atom   7C    basis set group =>   1
Atom   8C    basis set group =>   1
Atom   9C    basis set group =>   1
Atom  10C    basis set group =>   1
Atom  11C    basis set group =>   1
Atom  12C    basis set group =>   1
Atom  13C    basis set group =>   1
Atom  14C    basis set group =>   1
Atom  15C    basis set group =>   1
Atom  16C    basis set group =>   1
Atom  17C    basis set group =>   1
Atom  18C    basis set group =>   1
Atom  19C    basis set group =>   1
Atom  20C    basis set group =>   1
Atom  21C    basis set group =>   1
Atom  22C    basis set group =>   1
Atom  23C    basis set group =>   1
Atom  24H    basis set group =>   2
Atom  25H    basis set group =>   2
Atom  26H    basis set group =>   2
Atom  27H    basis set group =>   2
Atom  28H    basis set group =>   2
Atom  29H    basis set group =>   2
Atom  30H    basis set group =>   2
Atom  31H    basis set group =>   2
Atom  32H    basis set group =>   2
Atom  33H    basis set group =>   2
---------------------------------
AUXILIARY/J BASIS SET INFORMATION
---------------------------------
There are 2 groups of distinct atoms

 Group   1 Type C   : 12s5p4d2f1g contracted to 6s4p3d1f1g pattern {711111/2111/211/2/1}
 Group   2 Type H   : 5s2p1d contracted to 3s1p1d pattern {311/2/1}

Atom   0C    basis set group =>   1
Atom   1C    basis set group =>   1
Atom   2C    basis set group =>   1
Atom   3C    basis set group =>   1
Atom   4C    basis set group =>   1
Atom   5C    basis set group =>   1
Atom   6C    basis set group =>   1
Atom   7C    basis set group =>   1
Atom   8C    basis set group =>   1
Atom   9C    basis set group =>   1
Atom  10C    basis set group =>   1
Atom  11C    basis set group =>   1
Atom  12C    basis set group =>   1
Atom  13C    basis set group =>   1
Atom  14C    basis set group =>   1
Atom  15C    basis set group =>   1
Atom  16C    basis set group =>   1
Atom  17C    basis set group =>   1
Atom  18C    basis set group =>   1
Atom  19C    basis set group =>   1
Atom  20C    basis set group =>   1
Atom  21C    basis set group =>   1
Atom  22C    basis set group =>   1
Atom  23C    basis set group =>   1
Atom  24H    basis set group =>   2
Atom  25H    basis set group =>   2
Atom  26H    basis set group =>   2
Atom  27H    basis set group =>   2
Atom  28H    basis set group =>   2
Atom  29H    basis set group =>   2
Atom  30H    basis set group =>   2
Atom  31H    basis set group =>   2
Atom  32H    basis set group =>   2
Atom  33H    basis set group =>   2


           ************************************************************
           *        Program running with 4 parallel MPI-processes     *
           *              working on a common directory               *
           ************************************************************
------------------------------------------------------------------------------
                           ORCA GTO INTEGRAL CALCULATION
                           -- RI-GTO INTEGRALS CHOSEN --
------------------------------------------------------------------------------
------------------------------------------------------------------------------
                   ___                                                        
                  /   \      - P O W E R E D   B Y -                         
                 /     \                                                     
                 |  |  |   _    _      __       _____    __    __             
                 |  |  |  | |  | |    /  \     |  _  \  |  |  /  |          
                  \  \/   | |  | |   /    \    | | | |  |  | /  /          
                 / \  \   | |__| |  /  /\  \   | |_| |  |  |/  /          
                |  |  |   |  __  | /  /__\  \  |    /   |      \           
                |  |  |   | |  | | |   __   |  |    \   |  |\   \          
                \     /   | |  | | |  |  |  |  | |\  \  |  | \   \       
                 \___/    |_|  |_| |__|  |__|  |_| \__\ |__|  \__/        
                                                                              
                      - O R C A' S   B I G   F R I E N D -                    
                                      &                                       
                       - I N T E G R A L  F E E D E R -                       
                                                                              
 v1 FN, 2020, v2 2021                                                         
------------------------------------------------------------------------------


Reading SHARK input file eight_five.SHARKINP.tmp ... ok
----------------------
SHARK INTEGRAL PACKAGE
----------------------

Number of atoms                             ...     34
Number of basis functions                   ...    804
Number of shells                            ...    304
Maximum angular momentum                    ...      3
Integral batch strategy                     ... SHARK/LIBINT Hybrid
RI-J (if used) integral strategy            ... SPLIT-RIJ (Revised 2003 algorithm where possible)
Printlevel                                  ...      1
Contraction scheme used                     ... SEGMENTED contraction
Coulomb Range Separation                    ... NOT USED
Exchange Range Separation                   ... NOT USED
Finite Nucleus Model                        ... NOT USED
Auxiliary Coulomb fitting basis             ... AVAILABLE
   # of basis functions in Aux-J            ...   1286
   # of shells in Aux-J                     ...    410
   Maximum angular momentum in Aux-J        ...      4
Auxiliary J/K fitting basis                 ... NOT available
Auxiliary Correlation fitting basis         ... NOT available
Auxiliary 'external' fitting basis          ... NOT available
Integral threshold                          ...     2.500000e-11
Primitive cut-off                           ...     2.500000e-12
Primitive pair pre-selection threshold      ...     2.500000e-12

Calculating pre-screening integrals         ... done (  0.1 sec) Dimension = 304
Organizing shell pair data                  ... done (  1.3 sec)
Shell pair information
Total number of shell pairs                 ...     46360
Shell pairs after pre-screening             ...     35738
Total number of primitive shell pairs       ...    146628
Primitive shell pairs kept                  ...     75591
          la=0 lb=0:   8084 shell pairs
          la=1 lb=0:   9818 shell pairs
          la=1 lb=1:   2940 shell pairs
          la=2 lb=0:   5413 shell pairs
          la=2 lb=1:   3293 shell pairs
          la=2 lb=2:    929 shell pairs
          la=3 lb=0:   2542 shell pairs
          la=3 lb=1:   1588 shell pairs
          la=3 lb=2:    894 shell pairs
          la=3 lb=3:    237 shell pairs

Calculating one electron integrals          ... done (  0.3 sec)
Calculating RI/J V-Matrix + Cholesky decomp.... done (  0.3 sec)
Calculating Nuclear repulsion               ... done (  0.0 sec) ENN=   1800.842547311466 Eh

SHARK setup successfully completed in   2.9 seconds

Maximum memory used throughout the entire GTOINT-calculation: 52.5 MB


           ************************************************************
           *        Program running with 4 parallel MPI-processes     *
           *              working on a common directory               *
           ************************************************************
-------------------------------------------------------------------------------
                                 ORCA SCF
-------------------------------------------------------------------------------

------------
SCF SETTINGS
------------
Hamiltonian:
 Density Functional     Method          .... DFT(GTOs)
 Exchange Functional    Exchange        .... M062X
 Correlation Functional Correlation     .... M062X
 Gradients option       PostSCFGGA      .... off
 Hybrid DFT is turned on
   Fraction HF Exchange ScalHFX         ....  0.540000
   Scaling of DF-GGA-X  ScalDFX         ....  0.460000
   Scaling of DF-GGA-C  ScalDFC         ....  1.000000
   Scaling of DF-LDA-C  ScalLDAC        ....  1.000000
   Perturbative correction              ....  0.000000
   Density functional embedding theory  .... OFF
 RI-approximation to the Coulomb term is turned on
   Number of AuxJ basis functions       .... 1286
   RIJ-COSX (HFX calculated with COS-X)).... on


General Settings:
 Integral files         IntName         .... eight_five
 Hartree-Fock type      HFTyp           .... RHF
 Total Charge           Charge          ....    0
 Multiplicity           Mult            ....    1
 Number of Electrons    NEL             ....  154
 Basis Dimension        Dim             ....  804
 Nuclear Repulsion      ENuc            ....   1800.8425473115 Eh

Convergence Acceleration:
 DIIS                   CNVDIIS         .... on
   Start iteration      DIISMaxIt       ....    12
   Startup error        DIISStart       ....  0.200000
   # of expansion vecs  DIISMaxEq       ....     5
   Bias factor          DIISBfac        ....   1.050
   Max. coefficient     DIISMaxC        ....  10.000
 Trust-Rad. Augm. Hess. CNVTRAH         .... auto
   Auto Start mean grad. ratio tolernc. ....  1.125000
   Auto Start start iteration           ....    20
   Auto Start num. interpolation iter.  ....    10
   Max. Number of Micro iterations      ....    16
   Max. Number of Macro iterations      .... Maxiter - #DIIS iter
   Number of Davidson start vectors     ....     2
   Converg. threshold I  (grad. norm)   ....   1.000e-05
   Converg. threshold II (energy diff.) ....   1.000e-08
   Grad. Scal. Fac. for Micro threshold ....   0.100
   Minimum threshold for Micro iter.    ....   0.010
   NR start threshold (gradient norm)   ....   0.001
   Initial trust radius                 ....   0.400
   Minimum AH scaling param. (alpha)    ....   1.000
   Maximum AH scaling param. (alpha)    .... 1000.000
   Orbital update algorithm             .... Taylor
   White noise on init. David. guess    .... on
   Maximum white noise                  ....   0.010
   Quad. conv. algorithm                .... NR
 SOSCF                  CNVSOSCF        .... on
   Start iteration      SOSCFMaxIt      ....   150
   Startup grad/error   SOSCFStart      ....  0.003300
 Level Shifting         CNVShift        .... on
   Level shift para.    LevelShift      ....    0.2500
   Turn off err/grad.   ShiftErr        ....    0.0010
 Zerner damping         CNVZerner       .... off
 Static damping         CNVDamp         .... on
   Fraction old density DampFac         ....    0.7000
   Max. Damping (<1)    DampMax         ....    0.9800
   Min. Damping (>=0)   DampMin         ....    0.0000
   Turn off err/grad.   DampErr         ....    0.1000
 Fernandez-Rico         CNVRico         .... off

SCF Procedure:
 Maximum # iterations   MaxIter         ....   125
 SCF integral mode      SCFMode         .... Direct
   Integral package                     .... SHARK and LIBINT hybrid scheme
 Reset frequency        DirectResetFreq ....    20
 Integral Threshold     Thresh          ....  2.500e-11 Eh
 Primitive CutOff       TCut            ....  2.500e-12 Eh

Convergence Tolerance:
 Convergence Check Mode ConvCheckMode   .... Total+1el-Energy
 Convergence forced     ConvForced      .... 0
 Energy Change          TolE            ....  1.000e-08 Eh
 1-El. energy change                    ....  1.000e-05 Eh
 Orbital Gradient       TolG            ....  1.000e-05
 Orbital Rotation angle TolX            ....  1.000e-05
 DIIS Error             TolErr          ....  5.000e-07


Diagonalization of the overlap matrix:
Smallest eigenvalue                        ... 6.264e-07
Time for diagonalization                   ...    0.176 sec
Threshold for overlap eigenvalues          ... 1.000e-08
Number of eigenvalues below threshold      ... 0
Time for construction of square roots      ...    0.089 sec
Total time needed                          ...    0.268 sec

Time for model grid setup =    0.512 sec

------------------------------
INITIAL GUESS: MODEL POTENTIAL
------------------------------
Loading Hartree-Fock densities                     ... done
Calculating cut-offs                               ... done
Initializing the effective Hamiltonian             ... done
Setting up the integral package (SHARK)            ... done
Starting the Coulomb interaction                   ... done (   1.4 sec)
Reading the grid                                   ... done
Mapping shells                                     ... done
Starting the XC term evaluation                    ... done (   1.3 sec)
  promolecular density results
     # of electrons  =    153.981681497
     EX              =   -125.795845764
     EC              =     -5.219318221
     EX+EC           =   -131.015163985
Transforming the Hamiltonian                       ... done (   0.4 sec)
Diagonalizing the Hamiltonian                      ... done (   0.1 sec)
Back transforming the eigenvectors                 ... done (   0.0 sec)
Now organizing SCF variables                       ... done
                      ------------------
                      INITIAL GUESS DONE (   3.8 sec)
                      ------------------
-------------------
DFT GRID GENERATION
-------------------

General Integration Accuracy     IntAcc      ... 4.388
Radial Grid Type                 RadialGrid  ... OptM3 with GC (2021)
Angular Grid (max. ang.)         AngularGrid ... 4 (Lebedev-302)
Angular grid pruning method      GridPruning ... 4 (adaptive)
Weight generation scheme         WeightScheme... Becke
Basis function cutoff            BFCut       ... 1.0000e-11
Integration weight cutoff        WCut        ... 1.0000e-14
Angular grids for H and He will be reduced by one unit
Partially contracted basis set               ... off
Rotationally invariant grid construction     ... off

Total number of grid points                  ...   174244
Total number of batches                      ...     2738
Average number of points per batch           ...       63
Average number of grid points per atom       ...     5125
Time for grid setup =    1.664 sec

--------------------
COSX GRID GENERATION
--------------------

GRIDX 1
-------
General Integration Accuracy     IntAcc      ... 3.816
Radial Grid Type                 RadialGrid  ... OptM3 with GC (2021)
Angular Grid (max. ang.)         AngularGrid ... 1 (Lebedev-50)
Angular grid pruning method      GridPruning ... 4 (adaptive)
Weight generation scheme         WeightScheme... Becke
Basis function cutoff            BFCut       ... 1.0000e-11
Integration weight cutoff        WCut        ... 1.0000e-14
Angular grids for H and He will be reduced by one unit
Partially contracted basis set               ... on
Rotationally invariant grid construction     ... off

Total number of grid points                  ...    22164
Total number of batches                      ...      360
Average number of points per batch           ...       61
Average number of grid points per atom       ...      652
UseSFitting                                  ... on

GRIDX 2
-------
General Integration Accuracy     IntAcc      ... 4.020
Radial Grid Type                 RadialGrid  ... OptM3 with GC (2021)
Angular Grid (max. ang.)         AngularGrid ... 2 (Lebedev-110)
Angular grid pruning method      GridPruning ... 4 (adaptive)
Weight generation scheme         WeightScheme... Becke
Basis function cutoff            BFCut       ... 1.0000e-11
Integration weight cutoff        WCut        ... 1.0000e-14
Angular grids for H and He will be reduced by one unit
Partially contracted basis set               ... on
Rotationally invariant grid construction     ... off

Total number of grid points                  ...    49050
Total number of batches                      ...      782
Average number of points per batch           ...       62
Average number of grid points per atom       ...     1443
UseSFitting                                  ... on

GRIDX 3
-------
General Integration Accuracy     IntAcc      ... 4.338
Radial Grid Type                 RadialGrid  ... OptM3 with GC (2021)
Angular Grid (max. ang.)         AngularGrid ... 3 (Lebedev-194)
Angular grid pruning method      GridPruning ... 4 (adaptive)
Weight generation scheme         WeightScheme... Becke
Basis function cutoff            BFCut       ... 1.0000e-11
Integration weight cutoff        WCut        ... 1.0000e-14
Angular grids for H and He will be reduced by one unit
Partially contracted basis set               ... on
Rotationally invariant grid construction     ... off

Total number of grid points                  ...   107968
Total number of batches                      ...     1706
Average number of points per batch           ...       63
Average number of grid points per atom       ...     3176
UseSFitting                                  ... on

Time for X-Grid setup             =    3.534 sec

--------------
SCF ITERATIONS
--------------
ITER       Energy         Delta-E        Max-DP      RMS-DP      [F,P]     Damp
               ***  Starting incremental Fock matrix formation  ***
  0   -919.9528721636   0.000000000000 0.12907622  0.00166034  0.1466058 0.7000
  1   -920.1375321122  -0.184659948615 0.11857156  0.00139739  0.0850547 0.7000
                               ***Turning on DIIS***
  2   -920.2225316375  -0.084999525323 0.29907129  0.00338099  0.0552963 0.0000
  3   -920.3754873005  -0.152955662986 0.04190324  0.00062954  0.0375668 0.0000
  4   -920.3936041084  -0.018116807862 0.01350608  0.00021235  0.0285308 0.0000
  5   -920.3963711584  -0.002767050001 0.00776734  0.00010738  0.0088845 0.0000
                      *** Initiating the SOSCF procedure ***
                           *** Shutting down DIIS ***
                      *** Re-Reading the Fockian *** 
                      *** Removing any level shift *** 
ITER      Energy       Delta-E        Grad      Rot      Max-DP    RMS-DP
  6   -920.39668474  -0.0003135836  0.000839  0.000839  0.004512  0.000061
               *** Restarting incremental Fock matrix formation ***
  7   -920.39632452   0.0003602178  0.000463  0.004149  0.058106  0.000845
  8   -920.39632104   0.0000034806  0.002186  0.005713  0.132888  0.001428
  9   -920.39630139   0.0000196502  0.002171  0.002614  0.112277  0.001155
 10   -920.39633466  -0.0000332715  0.000404  0.001777  0.050654  0.000651
 11   -920.39634299  -0.0000083245  0.000446  0.000946  0.034118  0.000453
 12   -920.39634639  -0.0000034052  0.000047  0.000147  0.000421  0.000004
 13   -920.39634642  -0.0000000304  0.000055  0.000106  0.003955  0.000050
 14   -920.39634665  -0.0000002201  0.000006  0.000029  0.000572  0.000007
 15   -920.39634662   0.0000000264  0.000007  0.000011  0.000196  0.000003
                  ***Gradient check signals convergence***
              ***Rediagonalizing the Fockian in SOSCF/NRSCF***

               *****************************************************
               *                     SUCCESS                       *
               *           SCF CONVERGED AFTER  16 CYCLES          *
               *****************************************************

Old exchange energy                            =    -69.126142837 Eh
New exchange energy                            =    -69.125973350 Eh
Exchange energy change after final integration =      0.000169487 Eh
Total energy after final integration           =   -920.396177127 Eh
Final COS-X integration done in                =    99.839 sec

----------------
TOTAL SCF ENERGY
----------------

Total Energy       :         -920.39617713 Eh          -25045.25326 eV

Components:
Nuclear Repulsion  :         1800.84254731 Eh           49003.41700 eV
Electronic Energy  :        -2721.23872444 Eh          -74048.67025 eV
One Electron Energy:        -4819.62296528 Eh         -131148.60835 eV
Two Electron Energy:         2098.38424084 Eh           57099.93810 eV
Max COSX asymmetry :            0.00000510 Eh               0.00014 eV

Virial components:
Potential Energy   :        -1836.23357047 Eh          -49966.45570 eV
Kinetic Energy     :          915.83739335 Eh           24921.20244 eV
Virial Ratio       :            2.00497772


DFT components:
N(Alpha)           :       77.000146866741 electrons
N(Beta)            :       77.000146866741 electrons
N(Total)           :      154.000293733482 electrons
E(XC)              :      -64.620844741699 Eh       
DFET-embed. en.    :        0.000000000000 Eh       

---------------
SCF CONVERGENCE
---------------

  Last Energy change         ...    4.7534e-09  Tolerance :   1.0000e-08
  Last MAX-Density change    ...    2.1094e-15  Tolerance :   1.0000e-07
  Last RMS-Density change    ...    1.2763e-17  Tolerance :   5.0000e-09
  Last Orbital Gradient      ...    1.5794e-06  Tolerance :   1.0000e-05
  Last Orbital Rotation      ...    4.8025e-06  Tolerance :   1.0000e-05

             **** THE GBW FILE WAS UPDATED (eight_five.gbw) ****
             **** DENSITY eight_five.scfp WAS UPDATED ****
             **** ENERGY FILE WAS UPDATED (eight_five.en.tmp) ****
             **** THE GBW FILE WAS UPDATED (eight_five.gbw) ****
             **** DENSITY eight_five.scfp WAS UPDATED ****
----------------
ORBITAL ENERGIES
----------------

  NO   OCC          E(Eh)            E(eV) 
   0   2.0000     -10.591511      -288.2097 
   1   2.0000     -10.584169      -288.0099 
   2   2.0000     -10.577093      -287.8173 
   3   2.0000     -10.575573      -287.7760 
   4   2.0000     -10.571843      -287.6745 
   5   2.0000     -10.571455      -287.6639 
   6   2.0000     -10.568853      -287.5931 
   7   2.0000     -10.566973      -287.5420 
   8   2.0000     -10.566815      -287.5376 
   9   2.0000     -10.566706      -287.5347 
  10   2.0000     -10.565322      -287.4970 
  11   2.0000     -10.564872      -287.4848 
  12   2.0000     -10.563661      -287.4518 
  13   2.0000     -10.562507      -287.4204 
  14   2.0000     -10.562012      -287.4070 
  15   2.0000     -10.560394      -287.3629 
  16   2.0000     -10.559282      -287.3327 
  17   2.0000     -10.556735      -287.2634 
  18   2.0000     -10.555831      -287.2388 
  19   2.0000     -10.554688      -287.2076 
  20   2.0000     -10.554267      -287.1962 
  21   2.0000     -10.553221      -287.1677 
  22   2.0000     -10.551824      -287.1297 
  23   2.0000     -10.550854      -287.1033 
  24   2.0000      -1.031149       -28.0590 
  25   2.0000      -0.992443       -27.0057 
  26   2.0000      -0.989368       -26.9221 
  27   2.0000      -0.940157       -25.5830 
  28   2.0000      -0.937215       -25.5029 
  29   2.0000      -0.918749       -25.0004 
  30   2.0000      -0.885340       -24.0913 
  31   2.0000      -0.870439       -23.6858 
  32   2.0000      -0.851214       -23.1627 
  33   2.0000      -0.849074       -23.1045 
  34   2.0000      -0.817489       -22.2450 
  35   2.0000      -0.812346       -22.1051 
  36   2.0000      -0.734715       -19.9926 
  37   2.0000      -0.730840       -19.8872 
  38   2.0000      -0.725356       -19.7379 
  39   2.0000      -0.722531       -19.6611 
  40   2.0000      -0.712833       -19.3972 
  41   2.0000      -0.648854       -17.6562 
  42   2.0000      -0.640756       -17.4359 
  43   2.0000      -0.626891       -17.0586 
  44   2.0000      -0.625135       -17.0108 
  45   2.0000      -0.600821       -16.3492 
  46   2.0000      -0.599690       -16.3184 
  47   2.0000      -0.555626       -15.1194 
  48   2.0000      -0.549663       -14.9571 
  49   2.0000      -0.541177       -14.7262 
  50   2.0000      -0.536991       -14.6123 
  51   2.0000      -0.521576       -14.1928 
  52   2.0000      -0.520233       -14.1563 
  53   2.0000      -0.519655       -14.1405 
  54   2.0000      -0.503457       -13.6998 
  55   2.0000      -0.498396       -13.5621 
  56   2.0000      -0.485433       -13.2093 
  57   2.0000      -0.484561       -13.1856 
  58   2.0000      -0.474672       -12.9165 
  59   2.0000      -0.473411       -12.8822 
  60   2.0000      -0.470203       -12.7949 
  61   2.0000      -0.458949       -12.4886 
  62   2.0000      -0.440768       -11.9939 
  63   2.0000      -0.432446       -11.7675 
  64   2.0000      -0.428346       -11.6559 
  65   2.0000      -0.410227       -11.1628 
  66   2.0000      -0.409117       -11.1326 
  67   2.0000      -0.392427       -10.6785 
  68   2.0000      -0.390285       -10.6202 
  69   2.0000      -0.390259       -10.6195 
  70   2.0000      -0.340266        -9.2591 
  71   2.0000      -0.334540        -9.1033 
  72   2.0000      -0.318155        -8.6574 
  73   2.0000      -0.316085        -8.6011 
  74   2.0000      -0.260944        -7.1007 
  75   2.0000      -0.258583        -7.0364 
  76   2.0000      -0.234122        -6.3708 
  77   0.0000      -0.147656        -4.0179 
  78   0.0000      -0.045076        -1.2266 
  79   0.0000      -0.042127        -1.1463 
  80   0.0000      -0.001587        -0.0432 
  81   0.0000      -0.000728        -0.0198 
  82   0.0000       0.016904         0.4600 
  83   0.0000       0.049059         1.3350 
  84   0.0000       0.077342         2.1046 
  85   0.0000       0.082135         2.2350 
  86   0.0000       0.085965         2.3392 
  87   0.0000       0.091903         2.5008 
  88   0.0000       0.097875         2.6633 
  89   0.0000       0.108943         2.9645 
  90   0.0000       0.111656         3.0383 
  91   0.0000       0.114609         3.1187 
  92   0.0000       0.119487         3.2514 
  93   0.0000       0.120429         3.2770 
  94   0.0000       0.131468         3.5774 
  95   0.0000       0.135473         3.6864 
  96   0.0000       0.136485         3.7139 
  97   0.0000       0.137712         3.7473 
  98   0.0000       0.149237         4.0609 
  99   0.0000       0.170275         4.6334 
 100   0.0000       0.175257         4.7690 
 101   0.0000       0.180635         4.9153 
 102   0.0000       0.185187         5.0392 
 103   0.0000       0.190144         5.1741 
 104   0.0000       0.193157         5.2561 
 105   0.0000       0.202369         5.5067 
 106   0.0000       0.205035         5.5793 
 107   0.0000       0.209889         5.7114 
 108   0.0000       0.212738         5.7889 
 109   0.0000       0.224721         6.1150 
 110   0.0000       0.231597         6.3021 
 111   0.0000       0.233749         6.3606 
 112   0.0000       0.236243         6.4285 
 113   0.0000       0.243733         6.6323 
 114   0.0000       0.252652         6.8750 
 115   0.0000       0.261190         7.1074 
 116   0.0000       0.261573         7.1178 
 117   0.0000       0.266845         7.2612 
 118   0.0000       0.268717         7.3122 
 119   0.0000       0.270984         7.3738 
 120   0.0000       0.276633         7.5276 
 121   0.0000       0.281484         7.6596 
 122   0.0000       0.282533         7.6881 
 123   0.0000       0.285799         7.7770 
 124   0.0000       0.287932         7.8350 
 125   0.0000       0.291186         7.9236 
 126   0.0000       0.299910         8.1610 
 127   0.0000       0.302304         8.2261 
 128   0.0000       0.309944         8.4340 
 129   0.0000       0.312924         8.5151 
 130   0.0000       0.317506         8.6398 
 131   0.0000       0.318783         8.6745 
 132   0.0000       0.318992         8.6802 
 133   0.0000       0.321007         8.7350 
 134   0.0000       0.321732         8.7548 
 135   0.0000       0.330270         8.9871 
 136   0.0000       0.335410         9.1270 
 137   0.0000       0.339573         9.2402 
 138   0.0000       0.353131         9.6092 
 139   0.0000       0.354299         9.6410 
 140   0.0000       0.357132         9.7180 
 141   0.0000       0.358204         9.7472 
 142   0.0000       0.361343         9.8326 
 143   0.0000       0.368746        10.0341 
 144   0.0000       0.376963        10.2577 
 145   0.0000       0.380001        10.3404 
 146   0.0000       0.381652        10.3853 
 147   0.0000       0.382302        10.4030 
 148   0.0000       0.383862        10.4454 
 149   0.0000       0.385504        10.4901 
 150   0.0000       0.393792        10.7156 
 151   0.0000       0.397481        10.8160 
 152   0.0000       0.400888        10.9087 
 153   0.0000       0.402737        10.9590 
 154   0.0000       0.411327        11.1928 
 155   0.0000       0.412452        11.2234 
 156   0.0000       0.419664        11.4196 
 157   0.0000       0.422106        11.4861 
 158   0.0000       0.426245        11.5987 
 159   0.0000       0.432835        11.7780 
 160   0.0000       0.439189        11.9510 
 161   0.0000       0.445173        12.1138 
 162   0.0000       0.446863        12.1598 
 163   0.0000       0.457263        12.4428 
 164   0.0000       0.460149        12.5213 
 165   0.0000       0.461485        12.5576 
 166   0.0000       0.464648        12.6437 
 167   0.0000       0.466907        12.7052 
 168   0.0000       0.475756        12.9460 
 169   0.0000       0.476348        12.9621 
 170   0.0000       0.478766        13.0279 
 171   0.0000       0.495083        13.4719 
 172   0.0000       0.506219        13.7749 
 173   0.0000       0.508179        13.8282 
 174   0.0000       0.512343        13.9416 
 175   0.0000       0.514019        13.9872 
 176   0.0000       0.515229        14.0201 
 177   0.0000       0.518721        14.1151 
 178   0.0000       0.528320        14.3763 
 179   0.0000       0.531349        14.4587 
 180   0.0000       0.542248        14.7553 
 181   0.0000       0.543488        14.7891 
 182   0.0000       0.548063        14.9136 
 183   0.0000       0.548316        14.9204 
 184   0.0000       0.553189        15.0530 
 185   0.0000       0.554034        15.0760 
 186   0.0000       0.568256        15.4630 
 187   0.0000       0.573320        15.6008 
 188   0.0000       0.579543        15.7702 
 189   0.0000       0.583507        15.8780 
 190   0.0000       0.584374        15.9016 
 191   0.0000       0.604675        16.4540 
 192   0.0000       0.614782        16.7291 
 193   0.0000       0.629737        17.1360 
 194   0.0000       0.632169        17.2022 
 195   0.0000       0.634424        17.2635 
 196   0.0000       0.635324        17.2881 
 197   0.0000       0.638719        17.3804 
 198   0.0000       0.641940        17.4681 
 199   0.0000       0.645377        17.5616 
 200   0.0000       0.648583        17.6488 
 201   0.0000       0.656725        17.8704 
 202   0.0000       0.663186        18.0462 
 203   0.0000       0.663549        18.0561 
 204   0.0000       0.664349        18.0778 
 205   0.0000       0.667011        18.1503 
 206   0.0000       0.675029        18.3685 
 207   0.0000       0.681339        18.5402 
 208   0.0000       0.682040        18.5593 
 209   0.0000       0.692781        18.8515 
 210   0.0000       0.695393        18.9226 
 211   0.0000       0.698030        18.9944 
 212   0.0000       0.706485        19.2244 
 213   0.0000       0.719301        19.5732 
 214   0.0000       0.724745        19.7213 
 215   0.0000       0.730238        19.8708 
 216   0.0000       0.738545        20.0968 
 217   0.0000       0.745167        20.2770 
 218   0.0000       0.752667        20.4811 
 219   0.0000       0.761499        20.7214 
 220   0.0000       0.764182        20.7945 
 221   0.0000       0.765003        20.8168 
 222   0.0000       0.768320        20.9071 
 223   0.0000       0.774134        21.0653 
 224   0.0000       0.780531        21.2393 
 225   0.0000       0.781766        21.2729 
 226   0.0000       0.784986        21.3605 
 227   0.0000       0.786859        21.4115 
 228   0.0000       0.790032        21.4979 
 229   0.0000       0.793147        21.5826 
 230   0.0000       0.799720        21.7615 
 231   0.0000       0.800191        21.7743 
 232   0.0000       0.811374        22.0786 
 233   0.0000       0.818275        22.2664 
 234   0.0000       0.823566        22.4104 
 235   0.0000       0.831103        22.6155 
 236   0.0000       0.835407        22.7326 
 237   0.0000       0.841543        22.8996 
 238   0.0000       0.845183        22.9986 
 239   0.0000       0.846950        23.0467 
 240   0.0000       0.862623        23.4732 
 241   0.0000       0.863171        23.4881 
 242   0.0000       0.863877        23.5073 
 243   0.0000       0.872035        23.7293 
 244   0.0000       0.876737        23.8572 
 245   0.0000       0.880792        23.9676 
 246   0.0000       0.887729        24.1563 
 247   0.0000       0.892048        24.2739 
 248   0.0000       0.900921        24.5153 
 249   0.0000       0.901311        24.5259 
 250   0.0000       0.906879        24.6774 
 251   0.0000       0.915543        24.9132 
 252   0.0000       0.916695        24.9445 
 253   0.0000       0.922055        25.0904 
 254   0.0000       0.922222        25.0949 
 255   0.0000       0.936337        25.4790 
 256   0.0000       0.949882        25.8476 
 257   0.0000       0.950549        25.8657 
 258   0.0000       0.952715        25.9247 
 259   0.0000       0.970861        26.4185 
 260   0.0000       0.991863        26.9900 
 261   0.0000       0.995305        27.0836 
 262   0.0000       1.003478        27.3060 
 263   0.0000       1.009019        27.4568 
 264   0.0000       1.017378        27.6843 
 265   0.0000       1.020920        27.7806 
 266   0.0000       1.025934        27.9171 
 267   0.0000       1.051529        28.6136 
 268   0.0000       1.052934        28.6518 
 269   0.0000       1.054237        28.6872 
 270   0.0000       1.069220        29.0950 
 271   0.0000       1.071842        29.1663 
 272   0.0000       1.080755        29.4088 
 273   0.0000       1.084309        29.5055 
 274   0.0000       1.095532        29.8110 
 275   0.0000       1.100889        29.9567 
 276   0.0000       1.102579        30.0027 
 277   0.0000       1.116559        30.3831 
 278   0.0000       1.118968        30.4487 
 279   0.0000       1.135829        30.9075 
 280   0.0000       1.136726        30.9319 
 281   0.0000       1.138802        30.9884 
 282   0.0000       1.173599        31.9353 
 283   0.0000       1.192683        32.4545 
 284   0.0000       1.198136        32.6029 
 285   0.0000       1.202769        32.7290 
 286   0.0000       1.218920        33.1685 
 287   0.0000       1.226204        33.3667 
 288   0.0000       1.230730        33.4899 
 289   0.0000       1.233252        33.5585 
 290   0.0000       1.240149        33.7462 
 291   0.0000       1.245582        33.8940 
 292   0.0000       1.248939        33.9854 
 293   0.0000       1.251627        34.0585 
 294   0.0000       1.265727        34.4422 
 295   0.0000       1.272875        34.6367 
 296   0.0000       1.277130        34.7525 
 297   0.0000       1.279095        34.8059 
 298   0.0000       1.280294        34.8386 
 299   0.0000       1.284418        34.9508 
 300   0.0000       1.288088        35.0507 
 301   0.0000       1.295682        35.2573 
 302   0.0000       1.303467        35.4691 
 303   0.0000       1.306105        35.5409 
 304   0.0000       1.318342        35.8739 
 305   0.0000       1.325166        36.0596 
 306   0.0000       1.332713        36.2650 
 307   0.0000       1.345251        36.6062 
 308   0.0000       1.356271        36.9060 
 309   0.0000       1.360506        37.0213 
 310   0.0000       1.368267        37.2324 
 311   0.0000       1.370579        37.2953 
 312   0.0000       1.371988        37.3337 
 313   0.0000       1.374238        37.3949 
 314   0.0000       1.387254        37.7491 
 315   0.0000       1.397178        38.0192 
 316   0.0000       1.397583        38.0302 
 317   0.0000       1.404046        38.2060 
 318   0.0000       1.409989        38.3677 
 319   0.0000       1.413554        38.4648 
 320   0.0000       1.423719        38.7414 
 321   0.0000       1.429180        38.8900 
 322   0.0000       1.431008        38.9397 
 323   0.0000       1.450026        39.4572 
 324   0.0000       1.467039        39.9202 
 325   0.0000       1.470525        40.0150 
 326   0.0000       1.473294        40.0904 
 327   0.0000       1.490492        40.5584 
 328   0.0000       1.492982        40.6261 
 329   0.0000       1.496144        40.7121 
 330   0.0000       1.503092        40.9012 
 331   0.0000       1.516185        41.2575 
 332   0.0000       1.521222        41.3946 
 333   0.0000       1.526736        41.5446 
 334   0.0000       1.532904        41.7124 
 335   0.0000       1.539127        41.8818 
 336   0.0000       1.544895        42.0387 
 337   0.0000       1.545838        42.0644 
 338   0.0000       1.557712        42.3875 
 339   0.0000       1.566007        42.6132 
 340   0.0000       1.566086        42.6154 
 341   0.0000       1.573767        42.8244 
 342   0.0000       1.575294        42.8659 
 343   0.0000       1.588098        43.2143 
 344   0.0000       1.590744        43.2864 
 345   0.0000       1.603434        43.6317 
 346   0.0000       1.620878        44.1063 
 347   0.0000       1.624570        44.2068 
 348   0.0000       1.631292        44.3897 
 349   0.0000       1.635839        44.5134 
 350   0.0000       1.636085        44.5201 
 351   0.0000       1.646402        44.8009 
 352   0.0000       1.647102        44.8199 
 353   0.0000       1.653454        44.9928 
 354   0.0000       1.656497        45.0756 
 355   0.0000       1.660126        45.1743 
 356   0.0000       1.660710        45.1902 
 357   0.0000       1.671112        45.4733 
 358   0.0000       1.701489        46.2999 
 359   0.0000       1.712267        46.5931 
 360   0.0000       1.718802        46.7710 
 361   0.0000       1.724476        46.9254 
 362   0.0000       1.725258        46.9467 
 363   0.0000       1.730204        47.0812 
 364   0.0000       1.733815        47.1795 
 365   0.0000       1.736124        47.2423 
 366   0.0000       1.743020        47.4300 
 367   0.0000       1.746265        47.5183 
 368   0.0000       1.747333        47.5474 
 369   0.0000       1.753915        47.7264 
 370   0.0000       1.760913        47.9169 
 371   0.0000       1.771073        48.1933 
 372   0.0000       1.778137        48.3856 
 373   0.0000       1.779400        48.4199 
 374   0.0000       1.785278        48.5799 
 375   0.0000       1.790620        48.7252 
 376   0.0000       1.811572        49.2954 
 377   0.0000       1.823793        49.6279 
 378   0.0000       1.827000        49.7152 
 379   0.0000       1.861278        50.6479 
 380   0.0000       1.872874        50.9635 
 381   0.0000       1.882886        51.2359 
 382   0.0000       1.886615        51.3374 
 383   0.0000       1.900664        51.7197 
 384   0.0000       1.914006        52.0828 
 385   0.0000       1.918821        52.2138 
 386   0.0000       1.927149        52.4404 
 387   0.0000       1.945398        52.9370 
 388   0.0000       1.952904        53.1412 
 389   0.0000       1.954950        53.1969 
 390   0.0000       1.961731        53.3814 
 391   0.0000       1.974879        53.7392 
 392   0.0000       1.985100        54.0173 
 393   0.0000       1.985264        54.0218 
 394   0.0000       1.996912        54.3387 
 395   0.0000       1.999322        54.4043 
 396   0.0000       2.015920        54.8560 
 397   0.0000       2.021730        55.0141 
[...]

For completeness - the Gibbs free energy minus the electronic energy
G-E(el)                           ...     -3.60733114 Eh  -2263.63 kcal/mol


The first frequency considered to be a vibration is 6
The total number of vibrations considered is 96


--------------------------
THERMOCHEMISTRY AT 8000.00K
--------------------------

Temperature         ... 8000.00 K
Pressure            ... 1.00 atm
Total Mass          ... 298.34 AMU

Throughout the following assumptions are being made:
  (1) The electronic state is orbitally nondegenerate
  (2) There are no thermally accessible electronically excited states
  (3) Hindered rotations indicated by low frequency modes are not
      treated as such but are treated as vibrations and this may
      cause some error
  (4) All equations used are the standard statistical mechanics
      equations for an ideal gas
  (5) All vibrations are strictly harmonic

freq.      80.82  E(vib)   ...      15.78 
freq.      89.48  E(vib)   ...      15.77 
freq.     116.82  E(vib)   ...      15.73 
freq.     161.83  E(vib)   ...      15.67 
freq.     218.82  E(vib)   ...      15.59 
freq.     274.05  E(vib)   ...      15.51 
freq.     289.24  E(vib)   ...      15.49 
freq.     301.67  E(vib)   ...      15.47 
freq.     322.32  E(vib)   ...      15.44 
freq.     333.39  E(vib)   ...      15.43 
freq.     365.16  E(vib)   ...      15.38 
freq.     375.24  E(vib)   ...      15.37 
freq.     390.52  E(vib)   ...      15.35 
freq.     430.65  E(vib)   ...      15.29 
freq.     438.80  E(vib)   ...      15.28 
freq.     443.44  E(vib)   ...      15.27 
freq.     477.60  E(vib)   ...      15.23 
freq.     487.31  E(vib)   ...      15.21 
freq.     494.21  E(vib)   ...      15.20 
freq.     500.82  E(vib)   ...      15.19 
freq.     502.39  E(vib)   ...      15.19 
freq.     546.47  E(vib)   ...      15.13 
freq.     570.73  E(vib)   ...      15.10 
freq.     577.12  E(vib)   ...      15.09 
freq.     583.38  E(vib)   ...      15.08 
freq.     630.21  E(vib)   ...      15.01 
freq.     650.02  E(vib)   ...      14.99 
freq.     655.71  E(vib)   ...      14.98 
freq.     681.39  E(vib)   ...      14.94 
freq.     681.68  E(vib)   ...      14.94 
freq.     685.71  E(vib)   ...      14.94 
freq.     702.38  E(vib)   ...      14.92 
freq.     765.78  E(vib)   ...      14.83 
freq.     770.18  E(vib)   ...      14.82 
freq.     792.36  E(vib)   ...      14.79 
freq.     798.41  E(vib)   ...      14.78 
freq.     825.14  E(vib)   ...      14.75 
freq.     835.60  E(vib)   ...      14.73 
freq.     842.18  E(vib)   ...      14.72 
freq.     846.08  E(vib)   ...      14.72 
freq.     855.03  E(vib)   ...      14.71 
freq.     871.31  E(vib)   ...      14.68 
freq.     876.56  E(vib)   ...      14.68 
freq.     885.76  E(vib)   ...      14.67 
freq.     945.08  E(vib)   ...      14.59 
freq.     984.15  E(vib)   ...      14.53 
freq.     984.88  E(vib)   ...      14.53 
freq.     991.48  E(vib)   ...      14.52 
freq.     998.65  E(vib)   ...      14.51 
freq.    1001.53  E(vib)   ...      14.51 
freq.    1007.38  E(vib)   ...      14.50 
freq.    1027.96  E(vib)   ...      14.47 
freq.    1048.76  E(vib)   ...      14.45 
freq.    1140.33  E(vib)   ...      14.32 
freq.    1162.43  E(vib)   ...      14.29 
freq.    1172.36  E(vib)   ...      14.28 
freq.    1175.99  E(vib)   ...      14.28 
freq.    1195.13  E(vib)   ...      14.25 
freq.    1207.01  E(vib)   ...      14.23 
freq.    1234.14  E(vib)   ...      14.20 
freq.    1235.36  E(vib)   ...      14.20 
freq.    1249.43  E(vib)   ...      14.18 
freq.    1250.51  E(vib)   ...      14.18 
freq.    1283.32  E(vib)   ...      14.13 
freq.    1299.54  E(vib)   ...      14.11 
freq.    1330.85  E(vib)   ...      14.07 
freq.    1345.01  E(vib)   ...      14.05 
freq.    1382.12  E(vib)   ...      14.00 
freq.    1395.35  E(vib)   ...      13.99 
freq.    1423.27  E(vib)   ...      13.95 
freq.    1438.08  E(vib)   ...      13.93 
freq.    1450.11  E(vib)   ...      13.91 
freq.    1451.33  E(vib)   ...      13.91 
freq.    1463.01  E(vib)   ...      13.90 
freq.    1491.42  E(vib)   ...      13.86 
freq.    1510.98  E(vib)   ...      13.84 
freq.    1516.51  E(vib)   ...      13.83 
freq.    1542.75  E(vib)   ...      13.79 
freq.    1574.62  E(vib)   ...      13.75 
freq.    1590.80  E(vib)   ...      13.73 
freq.    1602.23  E(vib)   ...      13.72 
freq.    1664.51  E(vib)   ...      13.64 
freq.    1671.83  E(vib)   ...      13.63 
freq.    1689.28  E(vib)   ...      13.61 
freq.    1691.71  E(vib)   ...      13.60 
freq.    1713.17  E(vib)   ...      13.57 
freq.    3165.66  E(vib)   ...      11.80 
freq.    3185.95  E(vib)   ...      11.78 
freq.    3203.42  E(vib)   ...      11.76 
freq.    3204.00  E(vib)   ...      11.76 
freq.    3210.39  E(vib)   ...      11.75 
freq.    3211.02  E(vib)   ...      11.75 
freq.    3219.88  E(vib)   ...      11.74 
freq.    3220.87  E(vib)   ...      11.74 
freq.    3235.10  E(vib)   ...      11.72 
freq.    3235.86  E(vib)   ...      11.72 

------------
INNER ENERGY
------------

The inner energy is: U= E(el) + E(ZPE) + E(vib) + E(rot) + E(trans)
    E(el)   - is the total energy from the electronic structure calculation
              = E(kin-el) + E(nuc-el) + E(el-el) + E(nuc-nuc)
    E(ZPE)  - the the zero temperature vibrational energy from the frequency calculation
    E(vib)  - the the finite temperature correction to E(ZPE) due to population
              of excited vibrational states
    E(rot)  - is the rotational thermal energy
    E(trans)- is the translational thermal energy

Summary of contributions to the inner energy U:
Electronic energy                ...   -920.40754301 Eh
Zero point energy                ...      0.25435799 Eh     159.61 kcal/mol
Thermal vibrational correction   ...      2.19102920 Eh    1374.89 kcal/mol
Thermal rotational correction    ...      0.03800158 Eh      23.85 kcal/mol
Thermal translational correction ...      0.03800158 Eh      23.85 kcal/mol
-----------------------------------------------------------------------
Total thermal energy                   -917.88615266 Eh


Summary of corrections to the electronic energy:
(perhaps to be used in another calculation)
Total thermal correction                  2.26703236 Eh    1422.58 kcal/mol
Non-thermal (ZPE) correction              0.25435799 Eh     159.61 kcal/mol
-----------------------------------------------------------------------
Total correction                          2.52139036 Eh    1582.19 kcal/mol


--------
ENTHALPY
--------

The enthalpy is H = U + kB*T
                kB is Boltzmann's constant
Total free energy                 ...   -917.88615266 Eh 
Thermal Enthalpy correction       ...      0.02533514 Eh      15.90 kcal/mol
-----------------------------------------------------------------------
Total Enthalpy                    ...   -917.86081751 Eh


Note: Rotational entropy computed according to Herzberg 
Infrared and Raman Spectra, Chapter V,1, Van Nostrand Reinhold, 1945 
Point Group:  Cs, Symmetry Number:   1  
Rotational constants in cm-1:     0.011513     0.011337     0.005712 

Vibrational entropy computed according to the QRRHO of S. Grimme
Chem.Eur.J. 2012 18 9955


-------
ENTROPY
-------

The entropy contributions are T*S = T*(S(el)+S(vib)+S(rot)+S(trans))
     S(el)   - electronic entropy
     S(vib)  - vibrational entropy
     S(rot)  - rotational entropy
     S(trans)- translational entropy
The entropies will be listed as multiplied by the temperature to get
units of energy

Electronic entropy                ...      0.00000000 Eh      0.00 kcal/mol
Vibrational entropy               ...      6.76824231 Eh   4247.13 kcal/mol
Rotational entropy                ...      0.55892858 Eh    350.73 kcal/mol
Translational entropy             ...      0.75624431 Eh    474.55 kcal/mol
-----------------------------------------------------------------------
Final entropy term                ...      8.08341519 Eh   5072.41 kcal/mol

In case the symmetry of your molecule has not been determined correctly
or in case you have a reason to use a different symmetry number we print 
out the resulting rotational entropy values for sn=1,12 :
 --------------------------------------------------------
|  sn= 1 | S(rot)=       0.55892858 Eh    350.73 kcal/mol|
|  sn= 2 | S(rot)=       0.54136812 Eh    339.71 kcal/mol|
|  sn= 3 | S(rot)=       0.53109591 Eh    333.27 kcal/mol|
|  sn= 4 | S(rot)=       0.52380766 Eh    328.69 kcal/mol|
|  sn= 5 | S(rot)=       0.51815445 Eh    325.15 kcal/mol|
|  sn= 6 | S(rot)=       0.51353545 Eh    322.25 kcal/mol|
|  sn= 7 | S(rot)=       0.50963013 Eh    319.80 kcal/mol|
|  sn= 8 | S(rot)=       0.50624720 Eh    317.67 kcal/mol|
|  sn= 9 | S(rot)=       0.50326324 Eh    315.80 kcal/mol|
|  sn=10 | S(rot)=       0.50059399 Eh    314.13 kcal/mol|
|  sn=11 | S(rot)=       0.49817937 Eh    312.61 kcal/mol|
|  sn=12 | S(rot)=       0.49597499 Eh    311.23 kcal/mol|
 --------------------------------------------------------


-------------------
GIBBS FREE ENERGY
-------------------

The Gibbs free energy is G = H - T*S

Total enthalpy                    ...   -917.86081751 Eh 
Total entropy correction          ...     -8.08341519 Eh  -5072.41 kcal/mol
-----------------------------------------------------------------------
Final Gibbs free energy         ...   -925.94423271 Eh

For completeness - the Gibbs free energy minus the electronic energy
G-E(el)                           ...     -5.53668970 Eh  -3474.32 kcal/mol


The first frequency considered to be a vibration is 6
The total number of vibrations considered is 96


--------------------------
THERMOCHEMISTRY AT 10000.00K
--------------------------

Temperature         ... 10000.00 K
Pressure            ... 1.00 atm
Total Mass          ... 298.34 AMU

Throughout the following assumptions are being made:
  (1) The electronic state is orbitally nondegenerate
  (2) There are no thermally accessible electronically excited states
  (3) Hindered rotations indicated by low frequency modes are not
      treated as such but are treated as vibrations and this may
      cause some error
  (4) All equations used are the standard statistical mechanics
      equations for an ideal gas
  (5) All vibrations are strictly harmonic

freq.      80.82  E(vib)   ...      19.76 
freq.      89.48  E(vib)   ...      19.74 
freq.     116.82  E(vib)   ...      19.71 
freq.     161.83  E(vib)   ...      19.64 
freq.     218.82  E(vib)   ...      19.56 
freq.     274.05  E(vib)   ...      19.48 
freq.     289.24  E(vib)   ...      19.46 
freq.     301.67  E(vib)   ...      19.44 
freq.     322.32  E(vib)   ...      19.42 
freq.     333.39  E(vib)   ...      19.40 
freq.     365.16  E(vib)   ...      19.36 
freq.     375.24  E(vib)   ...      19.34 
freq.     390.52  E(vib)   ...      19.32 
freq.     430.65  E(vib)   ...      19.26 
freq.     438.80  E(vib)   ...      19.25 
freq.     443.44  E(vib)   ...      19.25 
freq.     477.60  E(vib)   ...      19.20 
freq.     487.31  E(vib)   ...      19.18 
freq.     494.21  E(vib)   ...      19.17 
freq.     500.82  E(vib)   ...      19.17 
freq.     502.39  E(vib)   ...      19.16 
freq.     546.47  E(vib)   ...      19.10 
freq.     570.73  E(vib)   ...      19.07 
freq.     577.12  E(vib)   ...      19.06 
freq.     583.38  E(vib)   ...      19.05 
freq.     630.21  E(vib)   ...      18.99 
freq.     650.02  E(vib)   ...      18.96 
freq.     655.71  E(vib)   ...      18.95 
freq.     681.39  E(vib)   ...      18.91 
freq.     681.68  E(vib)   ...      18.91 
freq.     685.71  E(vib)   ...      18.91 
freq.     702.38  E(vib)   ...      18.89 
freq.     765.78  E(vib)   ...      18.80 
freq.     770.18  E(vib)   ...      18.79 
freq.     792.36  E(vib)   ...      18.76 
freq.     798.41  E(vib)   ...      18.75 
freq.     825.14  E(vib)   ...      18.72 
freq.     835.60  E(vib)   ...      18.70 
freq.     842.18  E(vib)   ...      18.69 
freq.     846.08  E(vib)   ...      18.69 
freq.     855.03  E(vib)   ...      18.68 
freq.     871.31  E(vib)   ...      18.65 
freq.     876.56  E(vib)   ...      18.65 
freq.     885.76  E(vib)   ...      18.63 
freq.     945.08  E(vib)   ...      18.55 
freq.     984.15  E(vib)   ...      18.50 
freq.     984.88  E(vib)   ...      18.50 
freq.     991.48  E(vib)   ...      18.49 
freq.     998.65  E(vib)   ...      18.48 
freq.    1001.53  E(vib)   ...      18.48 
freq.    1007.38  E(vib)   ...      18.47 
freq.    1027.96  E(vib)   ...      18.44 
freq.    1048.76  E(vib)   ...      18.41 
freq.    1140.33  E(vib)   ...      18.29 
freq.    1162.43  E(vib)   ...      18.26 
freq.    1172.36  E(vib)   ...      18.24 
freq.    1175.99  E(vib)   ...      18.24 
freq.    1195.13  E(vib)   ...      18.21 
freq.    1207.01  E(vib)   ...      18.20 
freq.    1234.14  E(vib)   ...      18.16 
freq.    1235.36  E(vib)   ...      18.16 
freq.    1249.43  E(vib)   ...      18.14 
freq.    1250.51  E(vib)   ...      18.14 
freq.    1283.32  E(vib)   ...      18.09 
freq.    1299.54  E(vib)   ...      18.07 
freq.    1330.85  E(vib)   ...      18.03 
freq.    1345.01  E(vib)   ...      18.01 
freq.    1382.12  E(vib)   ...      17.96 
freq.    1395.35  E(vib)   ...      17.94 
freq.    1423.27  E(vib)   ...      17.91 
freq.    1438.08  E(vib)   ...      17.89 
freq.    1450.11  E(vib)   ...      17.87 
freq.    1451.33  E(vib)   ...      17.87 
freq.    1463.01  E(vib)   ...      17.85 
freq.    1491.42  E(vib)   ...      17.82 
freq.    1510.98  E(vib)   ...      17.79 
freq.    1516.51  E(vib)   ...      17.78 
freq.    1542.75  E(vib)   ...      17.75 
freq.    1574.62  E(vib)   ...      17.71 
freq.    1590.80  E(vib)   ...      17.69 
freq.    1602.23  E(vib)   ...      17.67 
freq.    1664.51  E(vib)   ...      17.59 
freq.    1671.83  E(vib)   ...      17.58 
freq.    1689.28  E(vib)   ...      17.56 
freq.    1691.71  E(vib)   ...      17.55 
freq.    1713.17  E(vib)   ...      17.52 
freq.    3165.66  E(vib)   ...      15.69 
freq.    3185.95  E(vib)   ...      15.66 
freq.    3203.42  E(vib)   ...      15.64 
freq.    3204.00  E(vib)   ...      15.64 
freq.    3210.39  E(vib)   ...      15.64 
freq.    3211.02  E(vib)   ...      15.63 
freq.    3219.88  E(vib)   ...      15.62 
freq.    3220.87  E(vib)   ...      15.62 
freq.    3235.10  E(vib)   ...      15.61 
freq.    3235.86  E(vib)   ...      15.60 

------------
INNER ENERGY
------------

The inner energy is: U= E(el) + E(ZPE) + E(vib) + E(rot) + E(trans)
    E(el)   - is the total energy from the electronic structure calculation
              = E(kin-el) + E(nuc-el) + E(el-el) + E(nuc-nuc)
    E(ZPE)  - the the zero temperature vibrational energy from the frequency calculation
    E(vib)  - the the finite temperature correction to E(ZPE) due to population
              of excited vibrational states
    E(rot)  - is the rotational thermal energy
    E(trans)- is the translational thermal energy

Summary of contributions to the inner energy U:
Electronic energy                ...   -920.40754301 Eh
Zero point energy                ...      0.25435799 Eh     159.61 kcal/mol
Thermal vibrational correction   ...      2.79644266 Eh    1754.79 kcal/mol
Thermal rotational correction    ...      0.04750198 Eh      29.81 kcal/mol
Thermal translational correction ...      0.04750198 Eh      29.81 kcal/mol
-----------------------------------------------------------------------
Total thermal energy                   -917.26173841 Eh


Summary of corrections to the electronic energy:
(perhaps to be used in another calculation)
Total thermal correction                  2.89144661 Eh    1814.41 kcal/mol
Non-thermal (ZPE) correction              0.25435799 Eh     159.61 kcal/mol
-----------------------------------------------------------------------
Total correction                          3.14580460 Eh    1974.02 kcal/mol


--------
ENTHALPY
--------

The enthalpy is H = U + kB*T
                kB is Boltzmann's constant
Total free energy                 ...   -917.26173841 Eh 
Thermal Enthalpy correction       ...      0.03166893 Eh      19.87 kcal/mol
-----------------------------------------------------------------------
Total Enthalpy                    ...   -917.23006948 Eh


Note: Rotational entropy computed according to Herzberg 
Infrared and Raman Spectra, Chapter V,1, Van Nostrand Reinhold, 1945 
Point Group:  Cs, Symmetry Number:   1  
Rotational constants in cm-1:     0.011513     0.011337     0.005712 

Vibrational entropy computed according to the QRRHO of S. Grimme
Chem.Eur.J. 2012 18 9955


-------
ENTROPY
-------

The entropy contributions are T*S = T*(S(el)+S(vib)+S(rot)+S(trans))
     S(el)   - electronic entropy
     S(vib)  - vibrational entropy
     S(rot)  - rotational entropy
     S(trans)- translational entropy
The entropies will be listed as multiplied by the temperature to get
units of energy

Electronic entropy                ...      0.00000000 Eh      0.00 kcal/mol
Vibrational entropy               ...      9.12890079 Eh   5728.46 kcal/mol
Rotational entropy                ...      0.70926048 Eh    445.07 kcal/mol
Translational entropy             ...      0.96297166 Eh    604.27 kcal/mol
-----------------------------------------------------------------------
Final entropy term                ...     10.80113293 Eh   6777.80 kcal/mol

In case the symmetry of your molecule has not been determined correctly
or in case you have a reason to use a different symmetry number we print 
out the resulting rotational entropy values for sn=1,12 :
 --------------------------------------------------------
|  sn= 1 | S(rot)=       0.70926048 Eh    445.07 kcal/mol|
|  sn= 2 | S(rot)=       0.68730991 Eh    431.29 kcal/mol|
|  sn= 3 | S(rot)=       0.67446964 Eh    423.24 kcal/mol|
|  sn= 4 | S(rot)=       0.66535933 Eh    417.52 kcal/mol|
|  sn= 5 | S(rot)=       0.65829283 Eh    413.08 kcal/mol|
|  sn= 6 | S(rot)=       0.65251907 Eh    409.46 kcal/mol|
|  sn= 7 | S(rot)=       0.64763743 Eh    406.40 kcal/mol|
|  sn= 8 | S(rot)=       0.64340876 Eh    403.74 kcal/mol|
|  sn= 9 | S(rot)=       0.63967881 Eh    401.40 kcal/mol|
|  sn=10 | S(rot)=       0.63634225 Eh    399.31 kcal/mol|
|  sn=11 | S(rot)=       0.63332397 Eh    397.42 kcal/mol|
|  sn=12 | S(rot)=       0.63056850 Eh    395.69 kcal/mol|
 --------------------------------------------------------


-------------------
GIBBS FREE ENERGY
-------------------

The Gibbs free energy is G = H - T*S

Total enthalpy                    ...   -917.23006948 Eh 
Total entropy correction          ...    -10.80113293 Eh  -6777.80 kcal/mol
-----------------------------------------------------------------------
Final Gibbs free energy         ...   -928.03120241 Eh

For completeness - the Gibbs free energy minus the electronic energy
G-E(el)                           ...     -7.62365940 Eh  -4783.91 kcal/mol


Timings for individual modules:

Sum of individual times         ...    29938.851 sec (= 498.981 min)
GTO integral calculation        ...       32.512 sec (=   0.542 min)   0.1 %
SCF iterations                  ...     7199.750 sec (= 119.996 min)  24.0 %
SCF Gradient evaluation         ...     1915.732 sec (=  31.929 min)   6.4 %
Geometry relaxation             ...        2.457 sec (=   0.041 min)   0.0 %
Analytical frequency calculation...    20788.400 sec (= 346.473 min)  69.4 %
                             ****ORCA TERMINATED NORMALLY****
TOTAL RUN TIME: 0 days 8 hours 19 minutes 23 seconds 740 msec
