
                                 *****************
                                 * O   R   C   A *
                                 *****************

                                            #,                                       
                                            ###                                      
                                            ####                                     
                                            #####                                    
                                            ######                                   
                                           ########,                                 
                                     ,,################,,,,,                         
                               ,,#################################,,                 
                          ,,##########################################,,             
                       ,#########################################, ''#####,          
                    ,#############################################,,   '####,        
                  ,##################################################,,,,####,       
                ,###########''''           ''''###############################       
              ,#####''   ,,,,##########,,,,          '''####'''          '####       
            ,##' ,,,,###########################,,,                        '##       
           ' ,,###''''                  '''############,,,                           
         ,,##''                                '''############,,,,        ,,,,,,###''
      ,#''                                            '''#######################'''  
     '                                                          ''''####''''         
             ,#######,   #######,   ,#######,      ##                                
            ,#'     '#,  ##    ##  ,#'     '#,    #''#        ######   ,####,        
            ##       ##  ##   ,#'  ##            #'  '#       #        #'  '#        
            ##       ##  #######   ##           ,######,      #####,   #    #        
            '#,     ,#'  ##    ##  '#,     ,#' ,#      #,         ##   #,  ,#        
             '#######'   ##     ##  '#######'  #'      '#     #####' # '####'        



                  #######################################################
                  #                        -***-                        #
                  #          Department of theory and spectroscopy      #
                  #    Directorship and core code : Frank Neese         #
                  #        Max Planck Institute fuer Kohlenforschung    #
                  #                Kaiser Wilhelm Platz 1               #
                  #                 D-45470 Muelheim/Ruhr               #
                  #                      Germany                        #
                  #                                                     #
                  #                  All rights reserved                #
                  #                        -***-                        #
                  #######################################################



                         Program Version 5.0.4 -  RELEASE  -

 With contributions from (in alphabetic order):
   Daniel Aravena         : Magnetic Suceptibility
   Michael Atanasov       : Ab Initio Ligand Field Theory (pilot matlab implementation)
   Alexander A. Auer      : GIAO ZORA, VPT2 properties, NMR spectrum
   Ute Becker             : Parallelization
   Giovanni Bistoni       : ED, misc. LED, open-shell LED, HFLD
   Martin Brehm           : Molecular dynamics
   Dmytro Bykov           : SCF Hessian
   Vijay G. Chilkuri      : MRCI spin determinant printing, contributions to CSF-ICE
   Dipayan Datta          : RHF DLPNO-CCSD density
   Achintya Kumar Dutta   : EOM-CC, STEOM-CC
   Dmitry Ganyushin       : Spin-Orbit,Spin-Spin,Magnetic field MRCI
   Miquel Garcia          : C-PCM and meta-GGA Hessian, CC/C-PCM, Gaussian charge scheme
   Yang Guo               : DLPNO-NEVPT2, F12-NEVPT2, CIM, IAO-localization
   Andreas Hansen         : Spin unrestricted coupled pair/coupled cluster methods
   Benjamin Helmich-Paris : MC-RPA, TRAH-SCF, COSX integrals
   Lee Huntington         : MR-EOM, pCC
   Robert Izsak           : Overlap fitted RIJCOSX, COSX-SCS-MP3, EOM
   Marcus Kettner         : VPT2
   Christian Kollmar      : KDIIS, OOCD, Brueckner-CCSD(T), CCSD density, CASPT2, CASPT2-K
   Simone Kossmann        : Meta GGA functionals, TD-DFT gradient, OOMP2, MP2 Hessian
   Martin Krupicka        : Initial AUTO-CI
   Lucas Lang             : DCDCAS
   Marvin Lechner         : AUTO-CI (C++ implementation), FIC-MRCC
   Dagmar Lenk            : GEPOL surface, SMD
   Dimitrios Liakos       : Extrapolation schemes; Compound Job, initial MDCI parallelization
   Dimitrios Manganas     : Further ROCIS development; embedding schemes
   Dimitrios Pantazis     : SARC Basis sets
   Anastasios Papadopoulos: AUTO-CI, single reference methods and gradients
   Taras Petrenko         : DFT Hessian,TD-DFT gradient, ASA, ECA, R-Raman, ABS, FL, XAS/XES, NRVS
   Peter Pinski           : DLPNO-MP2, DLPNO-MP2 Gradient
   Christoph Reimann      : Effective Core Potentials
   Marius Retegan         : Local ZFS, SOC
   Christoph Riplinger    : Optimizer, TS searches, QM/MM, DLPNO-CCSD(T), (RO)-DLPNO pert. Triples
   Tobias Risthaus        : Range-separated hybrids, TD-DFT gradient, RPA, STAB
   Michael Roemelt        : Original ROCIS implementation
   Masaaki Saitow         : Open-shell DLPNO-CCSD energy and density
   Barbara Sandhoefer     : DKH picture change effects
   Avijit Sen             : IP-ROCIS
   Kantharuban Sivalingam : CASSCF convergence, NEVPT2, FIC-MRCI
   Bernardo de Souza      : ESD, SOC TD-DFT
   Georgi Stoychev        : AutoAux, RI-MP2 NMR, DLPNO-MP2 response
   Willem Van den Heuvel  : Paramagnetic NMR
   Boris Wezisla          : Elementary symmetry handling
   Frank Wennmohs         : Technical directorship


 We gratefully acknowledge several colleagues who have allowed us to
 interface, adapt or use parts of their codes:
   Stefan Grimme, W. Hujo, H. Kruse, P. Pracht,  : VdW corrections, initial TS optimization,
                  C. Bannwarth, S. Ehlert          DFT functionals, gCP, sTDA/sTD-DF
   Ed Valeev, F. Pavosevic, A. Kumar             : LibInt (2-el integral package), F12 methods
   Garnet Chan, S. Sharma, J. Yang, R. Olivares  : DMRG
   Ulf Ekstrom                                   : XCFun DFT Library
   Mihaly Kallay                                 : mrcc  (arbitrary order and MRCC methods)
   Jiri Pittner, Ondrej Demel                    : Mk-CCSD
   Frank Weinhold                                : gennbo (NPA and NBO analysis)
   Christopher J. Cramer and Donald G. Truhlar   : smd solvation model
   Lars Goerigk                                  : TD-DFT with DH, B97 family of functionals
   V. Asgeirsson, H. Jonsson                     : NEB implementation
   FAccTs GmbH                                   : IRC, NEB, NEB-TS, DLPNO-Multilevel, CI-OPT
                                                   MM, QMMM, 2- and 3-layer-ONIOM, Crystal-QMMM,
                                                   LR-CPCM, SF, NACMEs, symmetry and pop. for TD-DFT,
                                                   nearIR, NL-DFT gradient (VV10), updates on ESD,
                                                   ML-optimized integration grids
   S Lehtola, MJT Oliveira, MAL Marques          : LibXC Library
   Liviu Ungur et al                             : ANISO software


 Your calculation uses the libint2 library for the computation of 2-el integrals
 For citations please refer to: http://libint.valeyev.net

 Your ORCA version has been built with support for libXC version: 5.1.0
 For citations please refer to: https://tddft.org/programs/libxc/

 This ORCA versions uses:
   CBLAS   interface :  Fast vector & matrix operations
   LAPACKE interface :  Fast linear algebra routines
   Shared memory     :  Shared parallel matrices


XCFun DFT library Copyright 2009-2010 Ulf Ekstrom and contributors.
See http://admol.org/xcfun for more information.
This is free software; see the source code for copying conditions.
There is ABSOLUTELY NO WARRANTY; not even for MERCHANTABILITY or FITNESS FOR A PARTICULAR PURPOSE.
For details see the documentation.
Scientific users of this library should cite U. Ekstrom, L. Visscher, R. Bast, A. J. Thorvaldsen and K. Ruud;
J.Chem.Theor.Comp. 2010, DOI: 10.1021/ct100117s
XCFun Version 0.99 

================================================================================

----- Orbital basis set information -----
Your calculation utilizes the basis: def2-TZVP
   F. Weigend and R. Ahlrichs, Phys. Chem. Chem. Phys. 7, 3297 (2005).

----- AuxJ basis set information -----
Your calculation utilizes the auxiliary basis: def2/J
   F. Weigend, Phys. Chem. Chem. Phys. 8, 1057 (2006).

================================================================================
                                        WARNINGS
                       Please study these warnings very carefully!
================================================================================


WARNING: Geometry Optimization
  ===> : Switching off AutoStart
         For restart on a previous wavefunction, please use MOREAD

WARNING: Minnesota functionals are quite sensitive to the integration grid.
         see SE Wheeler, KN Houk, JCTC 2010, 6, 395,
             N Mardirossian, M Head-Gordon, JCTC 2016, 12, 4303.
         DEFGRID3 seems to be a minimum grid for reliable results with these functionals!
  ===> : Please increase the integration grid!


INFO   : the flag for use of the SHARK integral package has been found!

================================================================================
                                       INPUT FILE
================================================================================
NAME = five_six_two_one_ten_four_loss.inp
|  1> !M062x def2-tzvp opt freq tightscf pal4
|  2> 
|  3> %freq
|  4> Temp 298.15,10,20,50,100,6000,8000,10000
|  5> end
|  6> 
|  7> 
|  8> %geom
|  9>  maxiter 2000
| 10> end
| 11> 
| 12> 
| 13> 
| 14> 
| 15> 
| 16> 
| 17> 
| 18> * xyz 0 1
| 19>   C   2.46362427987247     -2.85071308273857     -0.00000218907091
| 20>   C   1.27719400513090     -3.52585311672403     -0.00003902795947
| 21>   C   0.05064934326115     -2.82613554872827     -0.00011828018749
| 22>   C   -1.19925193688694     -3.46606389677068     -0.00015928151260
| 23>   C   -2.39885271805658     -2.87183824187673     -0.00023283554738
| 24>   C   -2.43518053153382     -1.44080024452875     -0.00027277196623
| 25>   C   -3.66777674509120     -0.75191121775761     -0.00034379554662
| 26>   C   -3.71279324924276      0.61270000430768     -0.00038290810371
| 27>   C   -2.51870888891228      1.35470401292599     -0.00035207453727
| 28>   C   -2.33852946574720      2.75004532075493     -0.00038523866368
| 29>   C   -1.29227857579710      3.37936032270345     -0.00036005870682
| 30>   C   0.02296635156368      2.87874227377718     -0.00029143038758
| 31>   C   1.23211767469076      3.59211777508479     -0.00026457178571
| 32>   C   2.42594730830480      2.92563510630820     -0.00019121984698
| 33>   C   2.44893445959464      1.52227723319545     -0.00014614397662
| 34>   C   3.55845924150033      0.65762020353451     -0.00006795876215
| 35>   C   3.57066637986837     -0.56331157183495     -0.00002324805222
| 36>   C   2.47403114247392     -1.44414615823703     -0.00004617494814
| 37>   C   1.25557023434205     -0.69183165762109     -0.00012491861115
| 38>   C   1.23800989899349      0.75081893774134     -0.00017659337158
| 39>   C   -0.00359548669936      1.44369816359284     -0.00024809051538
| 40>   C   -1.24385874208543      0.70472511229996     -0.00028011039122
| 41>   C   -1.22033926149096     -0.71624674943317     -0.00023589301594
| 42>   C   0.03056944314590     -1.40895937212992     -0.00016349124726
| 43>   H   3.40592714860256     -3.38099880595279      0.00006084796734
| 44>   H   1.25543248807529     -4.60779790743838     -0.00000593698860
| 45>   H   -3.32874432396662     -3.42840544994019     -0.00026138694326
| 46>   H   -4.58380467774224     -1.32989113444890     -0.00036599782084
| 47>   H   -4.65611295060898      1.14148914368134     -0.00043697075864
| 48>   H   3.36338199069149      3.46449630946482     -0.00016807868239
| 49> **                         ****END OF INPUT****
================================================================================

                       *****************************
                       * Geometry Optimization Run *
                       *****************************

Geometry optimization settings:
Update method            Update   .... BFGS
Choice of coordinates    CoordSys .... Z-matrix Internals
Initial Hessian          InHess   .... Almoef's Model

Convergence Tolerances:
Energy Change            TolE     ....  5.0000e-06 Eh
Max. Gradient            TolMAXG  ....  3.0000e-04 Eh/bohr
RMS Gradient             TolRMSG  ....  1.0000e-04 Eh/bohr
Max. Displacement        TolMAXD  ....  4.0000e-03 bohr
RMS Displacement         TolRMSD  ....  2.0000e-03 bohr
Strict Convergence                ....  False
------------------------------------------------------------------------------
                        ORCA OPTIMIZATION COORDINATE SETUP
------------------------------------------------------------------------------

The optimization will be done in new redundant internal coordinates
Making redundant internal coordinates   ...  (new redundants) done
Evaluating the initial hessian          ...  (Almloef) done
Evaluating the coordinates              ...  done
Calculating the B-matrix                .... done
Calculating the G-matrix                .... done
Diagonalizing the G-matrix              .... done
The first mode is                       ....  110
The number of degrees of freedom        ....   84

    -----------------------------------------------------------------
                    Redundant Internal Coordinates


    -----------------------------------------------------------------
         Definition                    Initial Value    Approx d2E/dq
    -----------------------------------------------------------------
      1. B(C   1,C   0)                  1.3651         0.684706   
      2. B(C   2,C   1)                  1.4121         0.576083   
      3. B(C   3,C   2)                  1.4042         0.593052   
      4. B(C   4,C   3)                  1.3387         0.754341   
      5. B(C   5,C   4)                  1.4315         0.536450   
      6. B(C   6,C   5)                  1.4120         0.576199   
      7. B(C   7,C   6)                  1.3654         0.684007   
      8. B(C   8,C   7)                  1.4058         0.589461   
      9. B(C   9,C   8)                  1.4069         0.587129   
     10. B(C  10,C   9)                  1.2209         1.162716   
     11. B(C  11,C  10)                  1.4073         0.586328   
     12. B(C  12,C  11)                  1.4039         0.593680   
     13. B(C  13,C  12)                  1.3673         0.679207   
     14. B(C  14,C  13)                  1.4035         0.594465   
     15. B(C  15,C  14)                  1.4067         0.587716   
     16. B(C  16,C  15)                  1.2210         1.162462   
     17. B(C  17,C  16)                  1.4066         0.587868   
     18. B(C  17,C   0)                  1.4066         0.587822   
     19. B(C  18,C  17)                  1.4320         0.535464   
     20. B(C  19,C  18)                  1.4428         0.514716   
     21. B(C  19,C  14)                  1.4358         0.528065   
     22. B(C  20,C  19)                  1.4219         0.555801   
     23. B(C  20,C  11)                  1.4353         0.529031   
     24. B(C  21,C  20)                  1.4437         0.512894   
     25. B(C  21,C   8)                  1.4310         0.537466   
     26. B(C  22,C  21)                  1.4212         0.557204   
     27. B(C  22,C   5)                  1.4145         0.571014   
     28. B(C  23,C  22)                  1.4299         0.539604   
     29. B(C  23,C  18)                  1.4195         0.560685   
     30. B(C  23,C   2)                  1.4173         0.565137   
     31. B(H  24,C   0)                  1.0813         0.371840   
     32. B(H  25,C   1)                  1.0822         0.370617   
     33. B(H  26,C   4)                  1.0837         0.368494   
     34. B(H  27,C   6)                  1.0831         0.369305   
     35. B(H  28,C   7)                  1.0814         0.371631   
     36. B(H  29,C  13)                  1.0813         0.371829   
     37. A(C   1,C   0,C  17)          120.0660         0.437675   
     38. A(C  17,C   0,H  24)          118.9449         0.351645   
     39. A(C   1,C   0,H  24)          120.9890         0.360873   
     40. A(C   2,C   1,H  25)          118.5516         0.350254   
     41. A(C   0,C   1,C   2)          120.6541         0.436087   
     42. A(C   0,C   1,H  25)          120.7944         0.360670   
     43. A(C   3,C   2,C  23)          116.2999         0.423524   
     44. A(C   1,C   2,C   3)          123.1845         0.424979   
     45. A(C   1,C   2,C  23)          120.5156         0.421333   
     46. A(C   2,C   3,C   4)          126.5367         0.446119   
     47. A(C   5,C   4,H  26)          119.4476         0.345739   
     48. A(C   3,C   4,C   5)          117.8058         0.438102   
     49. A(C   3,C   4,H  26)          122.7466         0.366330   
     50. A(C   4,C   5,C  22)          119.3584         0.416781   
     51. A(C   6,C   5,C  22)          119.9869         0.422127   
     52. A(C   4,C   5,C   6)          120.6547         0.417452   
     53. A(C   5,C   6,C   7)          121.0899         0.436023   
     54. A(C   7,C   6,H  27)          120.3610         0.360389   
     55. A(C   5,C   6,H  27)          118.5491         0.350056   
     56. A(C   6,C   7,C   8)          119.9674         0.437815   
     57. A(C   8,C   7,H  28)          118.8699         0.351777   
     58. A(C   6,C   7,H  28)          121.1627         0.360775   
     59. A(C   9,C   8,C  21)          109.6568         0.418993   
     60. A(C   7,C   8,C   9)          129.2147         0.425963   
     61. A(C   7,C   8,C  21)          121.1285         0.419290   
     62. A(C   8,C   9,C  10)          128.3846         0.481967   
     63. A(C   9,C  10,C  11)          128.1351         0.481846   
     64. A(C  12,C  11,C  20)          121.6002         0.418641   
     65. A(C  10,C  11,C  20)          109.7778         0.417713   
     66. A(C  10,C  11,C  12)          128.6220         0.426403   
     67. A(C  11,C  12,C  13)          120.2868         0.437822   
     68. A(C  14,C  13,H  29)          118.9530         0.352312   
     69. A(C  12,C  13,H  29)          120.9352         0.360375   
     70. A(C  12,C  13,C  14)          120.1119         0.437926   
     71. A(C  13,C  14,C  15)          128.8679         0.426685   
     72. A(C  15,C  14,C  19)          109.5701         0.417752   
     73. A(C  13,C  14,C  19)          121.5621         0.418603   
     74. A(C  14,C  15,C  16)          128.5023         0.482036   
     75. A(C  15,C  16,C  17)          128.1991         0.482060   
     76. A(C  16,C  17,C  18)          109.5356         0.418809   
     77. A(C   0,C  17,C  18)          121.2685         0.418803   
     78. A(C   0,C  17,C  16)          129.1959         0.425847   
     79. A(C  17,C  18,C  19)          122.3898         0.409037   
     80. A(C  19,C  18,C  23)          119.6477         0.412388   
     81. A(C  17,C  18,C  23)          117.9624         0.415293   
     82. A(C  18,C  19,C  20)          119.8611         0.411748   
     83. A(C  14,C  19,C  20)          118.3358         0.413624   
     84. A(C  14,C  19,C  18)          121.8031         0.408030   
     85. A(C  11,C  20,C  19)          118.1034         0.413758   
     86. A(C  19,C  20,C  21)          120.0489         0.411489   
     87. A(C  11,C  20,C  21)          121.8477         0.407906   
     88. A(C  20,C  21,C  22)          119.8391         0.411673   
     89. A(C   8,C  21,C  22)          117.9629         0.415109   
     90. A(C   8,C  21,C  20)          122.1981         0.409050   
     91. A(C  21,C  22,C  23)          119.9245         0.415402   
     92. A(C   5,C  22,C  23)          120.2111         0.417216   
     93. A(C   5,C  22,C  21)          119.8644         0.419609   
     94. A(C  18,C  23,C  22)          120.6786         0.415863   
     95. A(C   2,C  23,C  22)          119.7880         0.416448   
     96. A(C   2,C  23,C  18)          119.5334         0.419301   
     97. D(H  25,C   1,C   0,C  17)    180.0000         0.032899   
     98. D(C   2,C   1,C   0,H  24)    179.9999         0.032899   
     99. D(H  25,C   1,C   0,H  24)     -0.0000         0.032899   
    100. D(C   2,C   1,C   0,C  17)     -0.0001         0.032899   
    101. D(C   3,C   2,C   1,C   0)    180.0000         0.022787   
    102. D(C  23,C   2,C   1,C   0)      0.0001         0.022787   
    103. D(C   3,C   2,C   1,H  25)     -0.0001         0.022787   
    104. D(C  23,C   2,C   1,H  25)    180.0000         0.022787   
    105. D(C   4,C   3,C   2,C  23)     -0.0002         0.021974   
    106. D(C   4,C   3,C   2,C   1)    179.9999         0.021974   
    107. D(C   5,C   4,C   3,C   2)     -0.0001         0.036764   
    108. D(H  26,C   4,C   3,C   2)    180.0000         0.036764   
    109. D(C  22,C   5,C   4,C   3)      0.0001         0.019656   
    110. D(C  22,C   5,C   4,H  26)   -180.0000         0.019656   
    111. D(C   6,C   5,C   4,H  26)      0.0002         0.019656   
    112. D(C   6,C   5,C   4,C   3)   -179.9997         0.019656   
    113. D(H  27,C   6,C   5,C  22)   -179.9997         0.022796   
    114. D(H  27,C   6,C   5,C   4)      0.0001         0.022796   
    115. D(C   7,C   6,C   5,C   4)   -180.0000         0.022796   
    116. D(C   7,C   6,C   5,C  22)      0.0002         0.022796   
    117. D(H  28,C   7,C   6,H  27)     -0.0000         0.032827   
    118. D(H  28,C   7,C   6,C   5)   -180.0000         0.032827   
    119. D(C   8,C   7,C   6,H  27)    179.9999         0.032827   
    120. D(C   8,C   7,C   6,C   5)     -0.0000         0.032827   
    121. D(C  21,C   8,C   7,H  28)    180.0000         0.023909   
    122. D(C  21,C   8,C   7,C   6)      0.0000         0.023909   
    123. D(C   9,C   8,C   7,H  28)     -0.0002         0.023909   
    124. D(C   9,C   8,C   7,C   6)    179.9999         0.023909   
    125. D(C  10,C   9,C   8,C  21)     -0.0000         0.021519   
    126. D(C  10,C   9,C   8,C   7)   -179.9999         0.021519   
    127. D(C  11,C  10,C   9,C   8)      0.0000         0.086136   
    128. D(C  20,C  11,C  10,C   9)     -0.0001         0.021458   
    129. D(C  12,C  11,C  10,C   9)    179.9999         0.021458   
    130. D(C  13,C  12,C  11,C  10)    179.9998         0.022023   
    131. D(C  13,C  12,C  11,C  20)     -0.0002         0.022023   
    132. D(H  29,C  13,C  12,C  11)   -179.9999         0.029288   
    133. D(C  14,C  13,C  12,C  11)      0.0002         0.029288   
    134. D(C  19,C  14,C  13,H  29)   -179.9999         0.024338   
    135. D(C  19,C  14,C  13,C  12)      0.0001         0.024338   
    136. D(C  15,C  14,C  13,C  12)   -179.9999         0.024338   
    137. D(C  15,C  14,C  13,H  29)      0.0002         0.024338   
    138. D(C  16,C  15,C  14,C  13)    179.9996         0.021564   
    139. D(C  16,C  15,C  14,C  19)     -0.0003         0.021564   
    140. D(C  17,C  16,C  15,C  14)      0.0004         0.086092   
    141. D(C  18,C  17,C  16,C  15)     -0.0004         0.021575   
    142. D(C   0,C  17,C  16,C  15)    179.9997         0.021575   
    143. D(C  18,C  17,C   0,H  24)   -179.9998         0.023770   
    144. D(C  18,C  17,C   0,C   1)      0.0002         0.023770   
    145. D(C  16,C  17,C   0,H  24)      0.0002         0.023770   
    146. D(C  16,C  17,C   0,C   1)   -179.9998         0.023770   
    147. D(C  23,C  18,C  17,C  16)    179.9998         0.019582   
    148. D(C  23,C  18,C  17,C   0)     -0.0003         0.019582   
    149. D(C  19,C  18,C  17,C  16)      0.0003         0.019582   
    150. D(C  19,C  18,C  17,C   0)   -179.9998         0.019582   
    151. D(C  20,C  19,C  18,C  23)      0.0008         0.018061   
    152. D(C  20,C  19,C  18,C  17)   -179.9997         0.018061   
    153. D(C  14,C  19,C  18,C  23)   -179.9997         0.018061   
    154. D(C  14,C  19,C  18,C  17)     -0.0003         0.018061   
    155. D(C  20,C  19,C  14,C  15)    179.9997         0.019030   
    156. D(C  20,C  19,C  14,C  13)     -0.0003         0.019030   
    157. D(C  18,C  19,C  14,C  15)      0.0002         0.019030   
    158. D(C  18,C  19,C  14,C  13)   -179.9997         0.019030   
    159. D(C  19,C  20,C  11,C  10)    180.0000         0.019102   
    160. D(C  21,C  20,C  19,C  18)     -0.0005         0.021148   
    161. D(C  21,C  20,C  19,C  14)   -180.0000         0.021148   
    162. D(C  11,C  20,C  19,C  18)    179.9997         0.021148   
    163. D(C  11,C  20,C  19,C  14)      0.0002         0.021148   
    164. D(C  21,C  20,C  11,C  12)   -179.9998         0.019102   
    165. D(C  21,C  20,C  11,C  10)      0.0002         0.019102   
    166. D(C  19,C  20,C  11,C  12)     -0.0000         0.019102   
    167. D(C  22,C  21,C  20,C  19)      0.0002         0.017931   
    168. D(C  22,C  21,C  20,C  11)    180.0000         0.017931   
    169. D(C   8,C  21,C  20,C  19)   -180.0000         0.017931   
    170. D(C   8,C  21,C  20,C  11)     -0.0002         0.017931   
    171. D(C  22,C  21,C   8,C   9)    179.9999         0.019733   
    172. D(C  22,C  21,C   8,C   7)     -0.0002         0.019733   
    173. D(C  20,C  21,C   8,C   9)      0.0001         0.019733   
    174. D(C  20,C  21,C   8,C   7)    180.0000         0.019733   
    175. D(C  23,C  22,C  21,C  20)     -0.0002         0.021259   
    176. D(C  23,C  22,C  21,C   8)   -180.0000         0.021259   
    177. D(C   5,C  22,C  21,C  20)   -179.9997         0.021259   
    178. D(C   5,C  22,C  21,C   8)      0.0004         0.021259   
    179. D(C  23,C  22,C   5,C   6)    180.0000         0.022370   
    180. D(C  23,C  22,C   5,C   4)      0.0002         0.022370   
    181. D(C  21,C  22,C   5,C   6)     -0.0004         0.022370   
    182. D(C  21,C  22,C   5,C   4)    179.9998         0.022370   
    183. D(C  18,C  23,C  22,C  21)      0.0005         0.019895   
    184. D(C  18,C  23,C  22,C   5)   -180.0000         0.019895   
    185. D(C   2,C  23,C  22,C  21)    179.9999         0.019895   
    186. D(C   2,C  23,C  22,C   5)     -0.0005         0.019895   
    187. D(C  22,C  23,C  18,C  19)     -0.0008         0.021536   
    188. D(C  22,C  23,C  18,C  17)    179.9997         0.021536   
    189. D(C   2,C  23,C  18,C  19)    179.9997         0.021536   
    190. D(C   2,C  23,C  18,C  17)      0.0002         0.021536   
    191. D(C  22,C  23,C   2,C   3)      0.0005         0.021893   
    192. D(C  22,C  23,C   2,C   1)   -179.9996         0.021893   
    193. D(C  18,C  23,C   2,C   3)    179.9999         0.021893   
    194. D(C  18,C  23,C   2,C   1)     -0.0002         0.021893   
    -----------------------------------------------------------------

Number of atoms                         .... 30
Number of degrees of freedom            .... 194

         *************************************************************
         *                GEOMETRY OPTIMIZATION CYCLE   1            *
         *************************************************************
---------------------------------
CARTESIAN COORDINATES (ANGSTROEM)
---------------------------------
  C      2.463624   -2.850713   -0.000002
  C      1.277194   -3.525853   -0.000039
  C      0.050649   -2.826136   -0.000118
  C     -1.199252   -3.466064   -0.000159
  C     -2.398853   -2.871838   -0.000233
  C     -2.435181   -1.440800   -0.000273
  C     -3.667777   -0.751911   -0.000344
  C     -3.712793    0.612700   -0.000383
  C     -2.518709    1.354704   -0.000352
  C     -2.338529    2.750045   -0.000385
  C     -1.292279    3.379360   -0.000360
  C      0.022966    2.878742   -0.000291
  C      1.232118    3.592118   -0.000265
  C      2.425947    2.925635   -0.000191
  C      2.448934    1.522277   -0.000146
  C      3.558459    0.657620   -0.000068
  C      3.570666   -0.563312   -0.000023
  C      2.474031   -1.444146   -0.000046
  C      1.255570   -0.691832   -0.000125
  C      1.238010    0.750819   -0.000177
  C     -0.003595    1.443698   -0.000248
  C     -1.243859    0.704725   -0.000280
  C     -1.220339   -0.716247   -0.000236
  C      0.030569   -1.408959   -0.000163
  H      3.405927   -3.380999    0.000061
  H      1.255432   -4.607798   -0.000006
  H     -3.328744   -3.428405   -0.000261
  H     -4.583805   -1.329891   -0.000366
  H     -4.656113    1.141489   -0.000437
  H      3.363382    3.464496   -0.000168

----------------------------
CARTESIAN COORDINATES (A.U.)
----------------------------
  NO LB      ZA    FRAG     MASS         X           Y           Z
   0 C     6.0000    0    12.011    4.655575   -5.387067   -0.000004
   1 C     6.0000    0    12.011    2.413547   -6.662897   -0.000074
   2 C     6.0000    0    12.011    0.095713   -5.340622   -0.000224
   3 C     6.0000    0    12.011   -2.266258   -6.549912   -0.000301
   4 C     6.0000    0    12.011   -4.533175   -5.426988   -0.000440
   5 C     6.0000    0    12.011   -4.601824   -2.722718   -0.000515
   6 C     6.0000    0    12.011   -6.931094   -1.420906   -0.000650
   7 C     6.0000    0    12.011   -7.016162    1.157835   -0.000724
   8 C     6.0000    0    12.011   -4.759670    2.560020   -0.000665
   9 C     6.0000    0    12.011   -4.419180    5.196833   -0.000728
  10 C     6.0000    0    12.011   -2.442053    6.386066   -0.000680
  11 C     6.0000    0    12.011    0.043400    5.440035   -0.000551
  12 C     6.0000    0    12.011    2.328365    6.788119   -0.000500
  13 C     6.0000    0    12.011    4.584376    5.528649   -0.000361
  14 C     6.0000    0    12.011    4.627815    2.876687   -0.000276
  15 C     6.0000    0    12.011    6.724513    1.242722   -0.000128
  16 C     6.0000    0    12.011    6.747582   -1.064505   -0.000044
  17 C     6.0000    0    12.011    4.675241   -2.729041   -0.000087
  18 C     6.0000    0    12.011    2.372684   -1.307372   -0.000236
  19 C     6.0000    0    12.011    2.339500    1.418842   -0.000334
  20 C     6.0000    0    12.011   -0.006794    2.728194   -0.000469
  21 C     6.0000    0    12.011   -2.350552    1.331737   -0.000529
  22 C     6.0000    0    12.011   -2.306107   -1.353510   -0.000446
  23 C     6.0000    0    12.011    0.057768   -2.662547   -0.000309
  24 H     1.0000    0     1.008    6.436270   -6.389162    0.000115
  25 H     1.0000    0     1.008    2.372424   -8.707476   -0.000011
  26 H     1.0000    0     1.008   -6.290415   -6.478747   -0.000494
  27 H     1.0000    0     1.008   -8.662135   -2.513130   -0.000692
  28 H     1.0000    0     1.008   -8.798778    2.157102   -0.000826
  29 H     1.0000    0     1.008    6.355871    6.546949   -0.000318

--------------------------------
INTERNAL COORDINATES (ANGSTROEM)
--------------------------------
 C      0   0   0     0.000000000000     0.00000000     0.00000000
 C      1   0   0     1.365075405855     0.00000000     0.00000000
 C      2   1   0     1.412096487073   120.65405474     0.00000000
 C      3   2   1     1.404194253807   123.18448403   179.99999548
 C      4   3   2     1.338710636593   126.53667483   179.99993029
 C      5   4   3     1.431499026015   117.80582306     0.00000000
 C      6   5   4     1.412041614800   120.65468373   180.00031337
 C      7   6   5     1.365353534643   121.08992386   180.00002878
 C      8   7   6     1.405847576853   119.96739963     0.00000000
 C      9   8   7     1.406926434099   129.21466480   179.99985058
 C     10   9   8     1.220933371250   128.38455854   180.00014667
 C     11  10   9     1.407297997785   128.13510071     0.00000000
 C     12  11  10     1.403905811943   128.62204290   179.99986207
 C     13  12  11     1.367270400197   120.28679399   179.99978107
 C     14  13  12     1.403546127202   120.11186410     0.00000000
 C     15  14  13     1.406654551309   128.86785381   180.00012098
 C     16  15  14     1.220992799460   128.50226321   179.99964904
 C     17  16  15     1.406583951644   128.19913909     0.00000000
 C     18  17  16     1.432000034456   109.53559171     0.00000000
 C     15  14  13     1.435787656312   121.56205315     0.00000000
 C     20  15  14     1.421852861765   118.33577083     0.00000000
 C      9   8   7     1.430984092610   121.12854471     0.00000000
 C      6   5   4     1.414502414284   119.35844359     0.00000000
 C      3   2   1     1.417318425743   120.51560303     0.00000000
 H      1   2   3     1.081266687102   120.98903654   179.99985380
 H      2   1   3     1.082163617423   120.79436281   180.00013951
 H      5   4   3     1.083727574923   122.74660524   179.99997955
 H      7   6   5     1.083128781811   118.54907638     0.00000000
 H      8   7   6     1.081420369619   121.16274943   180.00002077
 H     14  13  12     1.081274794187   120.93518279   180.00011322

---------------------------
INTERNAL COORDINATES (A.U.)
---------------------------
 C      0   0   0     0.000000000000     0.00000000     0.00000000
 C      1   0   0     2.579618669217     0.00000000     0.00000000
 C      2   1   0     2.668475635240   120.65405474     0.00000000
 C      3   2   1     2.653542578522   123.18448403   179.99999548
 C      4   3   2     2.529796475728   126.53667483   179.99993029
 C      5   4   3     2.705141120143   117.80582306     0.00000000
 C      6   5   4     2.668371941671   120.65468373   180.00031337
 C      7   6   5     2.580144256457   121.08992386   180.00002878
 C      8   7   6     2.656666906288   119.96739963     0.00000000
 C      9   8   7     2.658705651021   129.21466480   179.99985058
 C     10   9   8     2.307229699428   128.38455854   180.00014667
 C     11  10   9     2.659407804629   128.13510071     0.00000000
 C     12  11  10     2.652997502393   128.62204290   179.99986207
 C     13  12  11     2.583766607389   120.28679399   179.99978107
 C     14  13  12     2.652317796738   120.11186410     0.00000000
 C     15  14  13     2.658191867008   128.86785381   180.00012098
 C     16  15  14     2.307342002469   128.50226321   179.99964904
 C     17  16  15     2.658058452976   128.19913909     0.00000000
 C     18  17  16     2.706087888888   109.53559171     0.00000000
 C     15  14  13     2.713245456895   121.56205315     0.00000000
 C     20  15  14     2.686912511468   118.33577083     0.00000000
 C      9   8   7     2.704168037030   121.12854471     0.00000000
 C      6   5   4     2.673022178767   119.35844359     0.00000000
 C      3   2   1     2.678343669215   120.51560303     0.00000000
 H      1   2   3     2.043297916354   120.98903654   179.99985380
 H      2   1   3     2.044992869023   120.79436281   180.00013951
 H      5   4   3     2.047948320383   122.74660524   179.99997955
 H      7   6   5     2.046816765391   118.54907638     0.00000000
 H      8   7   6     2.043588334225   121.16274943   180.00002077
 H     14  13  12     2.043313236526   120.93518279   180.00011322

---------------------
BASIS SET INFORMATION
---------------------
There are 2 groups of distinct atoms

 Group   1 Type C   : 11s6p2d1f contracted to 5s3p2d1f pattern {62111/411/11/1}
 Group   2 Type H   : 5s1p contracted to 3s1p pattern {311/1}

Atom   0C    basis set group =>   1
Atom   1C    basis set group =>   1
Atom   2C    basis set group =>   1
Atom   3C    basis set group =>   1
Atom   4C    basis set group =>   1
Atom   5C    basis set group =>   1
Atom   6C    basis set group =>   1
Atom   7C    basis set group =>   1
Atom   8C    basis set group =>   1
Atom   9C    basis set group =>   1
Atom  10C    basis set group =>   1
Atom  11C    basis set group =>   1
Atom  12C    basis set group =>   1
Atom  13C    basis set group =>   1
Atom  14C    basis set group =>   1
Atom  15C    basis set group =>   1
Atom  16C    basis set group =>   1
Atom  17C    basis set group =>   1
Atom  18C    basis set group =>   1
Atom  19C    basis set group =>   1
Atom  20C    basis set group =>   1
Atom  21C    basis set group =>   1
Atom  22C    basis set group =>   1
Atom  23C    basis set group =>   1
Atom  24H    basis set group =>   2
Atom  25H    basis set group =>   2
Atom  26H    basis set group =>   2
Atom  27H    basis set group =>   2
Atom  28H    basis set group =>   2
Atom  29H    basis set group =>   2
---------------------------------
AUXILIARY/J BASIS SET INFORMATION
---------------------------------
There are 2 groups of distinct atoms

 Group   1 Type C   : 12s5p4d2f1g contracted to 6s4p3d1f1g pattern {711111/2111/211/2/1}
 Group   2 Type H   : 5s2p1d contracted to 3s1p1d pattern {311/2/1}

Atom   0C    basis set group =>   1
Atom   1C    basis set group =>   1
Atom   2C    basis set group =>   1
Atom   3C    basis set group =>   1
Atom   4C    basis set group =>   1
Atom   5C    basis set group =>   1
Atom   6C    basis set group =>   1
Atom   7C    basis set group =>   1
Atom   8C    basis set group =>   1
Atom   9C    basis set group =>   1
Atom  10C    basis set group =>   1
Atom  11C    basis set group =>   1
Atom  12C    basis set group =>   1
Atom  13C    basis set group =>   1
Atom  14C    basis set group =>   1
Atom  15C    basis set group =>   1
Atom  16C    basis set group =>   1
Atom  17C    basis set group =>   1
Atom  18C    basis set group =>   1
Atom  19C    basis set group =>   1
Atom  20C    basis set group =>   1
Atom  21C    basis set group =>   1
Atom  22C    basis set group =>   1
Atom  23C    basis set group =>   1
Atom  24H    basis set group =>   2
Atom  25H    basis set group =>   2
Atom  26H    basis set group =>   2
Atom  27H    basis set group =>   2
Atom  28H    basis set group =>   2
Atom  29H    basis set group =>   2


           ************************************************************
           *        Program running with 4 parallel MPI-processes     *
           *              working on a common directory               *
           ************************************************************
------------------------------------------------------------------------------
                           ORCA GTO INTEGRAL CALCULATION
                           -- RI-GTO INTEGRALS CHOSEN --
------------------------------------------------------------------------------
------------------------------------------------------------------------------
                   ___                                                        
                  /   \      - P O W E R E D   B Y -                         
                 /     \                                                     
                 |  |  |   _    _      __       _____    __    __             
                 |  |  |  | |  | |    /  \     |  _  \  |  |  /  |          
                  \  \/   | |  | |   /    \    | | | |  |  | /  /          
                 / \  \   | |__| |  /  /\  \   | |_| |  |  |/  /          
                |  |  |   |  __  | /  /__\  \  |    /   |      \           
                |  |  |   | |  | | |   __   |  |    \   |  |\   \          
                \     /   | |  | | |  |  |  |  | |\  \  |  | \   \       
                 \___/    |_|  |_| |__|  |__|  |_| \__\ |__|  \__/        
                                                                              
                      - O R C A' S   B I G   F R I E N D -                    
                                      &                                       
                       - I N T E G R A L  F E E D E R -                       
                                                                              
 v1 FN, 2020, v2 2021                                                         
------------------------------------------------------------------------------


Reading SHARK input file five_six_two_one_ten_four_loss.SHARKINP.tmp ... ok
----------------------
SHARK INTEGRAL PACKAGE
----------------------

Number of atoms                             ...     30
Number of basis functions                   ...    780
Number of shells                            ...    288
Maximum angular momentum                    ...      3
Integral batch strategy                     ... SHARK/LIBINT Hybrid
RI-J (if used) integral strategy            ... SPLIT-RIJ (Revised 2003 algorithm where possible)
Printlevel                                  ...      1
Contraction scheme used                     ... SEGMENTED contraction
Coulomb Range Separation                    ... NOT USED
Exchange Range Separation                   ... NOT USED
Finite Nucleus Model                        ... NOT USED
Auxiliary Coulomb fitting basis             ... AVAILABLE
   # of basis functions in Aux-J            ...   1242
   # of shells in Aux-J                     ...    390
   Maximum angular momentum in Aux-J        ...      4
Auxiliary J/K fitting basis                 ... NOT available
Auxiliary Correlation fitting basis         ... NOT available
Auxiliary 'external' fitting basis          ... NOT available
Integral threshold                          ...     2.500000e-11
Primitive cut-off                           ...     2.500000e-12
Primitive pair pre-selection threshold      ...     2.500000e-12

Calculating pre-screening integrals         ... done (  0.1 sec) Dimension = 288
Organizing shell pair data                  ... done (  0.9 sec)
Shell pair information
Total number of shell pairs                 ...     41616
Shell pairs after pre-screening             ...     32541
Total number of primitive shell pairs       ...    133932
Primitive shell pairs kept                  ...     69790
          la=0 lb=0:   6879 shell pairs
          la=1 lb=0:   8827 shell pairs
          la=1 lb=1:   2735 shell pairs
          la=2 lb=0:   5003 shell pairs
          la=2 lb=1:   3177 shell pairs
          la=2 lb=2:    935 shell pairs
          la=3 lb=0:   2340 shell pairs
          la=3 lb=1:   1545 shell pairs
          la=3 lb=2:    874 shell pairs
          la=3 lb=3:    226 shell pairs

Calculating one electron integrals          ... done (  0.3 sec)
Calculating RI/J V-Matrix + Cholesky decomp.... done (  0.3 sec)
Calculating Nuclear repulsion               ... done (  0.0 sec) ENN=   1727.250400470199 Eh

SHARK setup successfully completed in   6.6 seconds

Maximum memory used throughout the entire GTOINT-calculation: 49.0 MB


           ************************************************************
           *        Program running with 4 parallel MPI-processes     *
           *              working on a common directory               *
           ************************************************************
-------------------------------------------------------------------------------
                                 ORCA SCF
-------------------------------------------------------------------------------

------------
SCF SETTINGS
------------
Hamiltonian:
 Density Functional     Method          .... DFT(GTOs)
 Exchange Functional    Exchange        .... M062X
 Correlation Functional Correlation     .... M062X
 Gradients option       PostSCFGGA      .... off
 Hybrid DFT is turned on
   Fraction HF Exchange ScalHFX         ....  0.540000
   Scaling of DF-GGA-X  ScalDFX         ....  0.460000
   Scaling of DF-GGA-C  ScalDFC         ....  1.000000
   Scaling of DF-LDA-C  ScalLDAC        ....  1.000000
   Perturbative correction              ....  0.000000
   Density functional embedding theory  .... OFF
 RI-approximation to the Coulomb term is turned on
   Number of AuxJ basis functions       .... 1242
   RIJ-COSX (HFX calculated with COS-X)).... on


General Settings:
 Integral files         IntName         .... five_six_two_one_ten_four_loss
 Hartree-Fock type      HFTyp           .... RHF
 Total Charge           Charge          ....    0
 Multiplicity           Mult            ....    1
 Number of Electrons    NEL             ....  150
 Basis Dimension        Dim             ....  780
 Nuclear Repulsion      ENuc            ....   1727.2504004702 Eh

Convergence Acceleration:
 DIIS                   CNVDIIS         .... on
   Start iteration      DIISMaxIt       ....    12
   Startup error        DIISStart       ....  0.200000
   # of expansion vecs  DIISMaxEq       ....     5
   Bias factor          DIISBfac        ....   1.050
   Max. coefficient     DIISMaxC        ....  10.000
 Trust-Rad. Augm. Hess. CNVTRAH         .... auto
   Auto Start mean grad. ratio tolernc. ....  1.125000
   Auto Start start iteration           ....    20
   Auto Start num. interpolation iter.  ....    10
   Max. Number of Micro iterations      ....    16
   Max. Number of Macro iterations      .... Maxiter - #DIIS iter
   Number of Davidson start vectors     ....     2
   Converg. threshold I  (grad. norm)   ....   1.000e-05
   Converg. threshold II (energy diff.) ....   1.000e-08
   Grad. Scal. Fac. for Micro threshold ....   0.100
   Minimum threshold for Micro iter.    ....   0.010
   NR start threshold (gradient norm)   ....   0.001
   Initial trust radius                 ....   0.400
   Minimum AH scaling param. (alpha)    ....   1.000
   Maximum AH scaling param. (alpha)    .... 1000.000
   Orbital update algorithm             .... Taylor
   White noise on init. David. guess    .... on
   Maximum white noise                  ....   0.010
   Quad. conv. algorithm                .... NR
 SOSCF                  CNVSOSCF        .... on
   Start iteration      SOSCFMaxIt      ....   150
   Startup grad/error   SOSCFStart      ....  0.003300
 Level Shifting         CNVShift        .... on
   Level shift para.    LevelShift      ....    0.2500
   Turn off err/grad.   ShiftErr        ....    0.0010
 Zerner damping         CNVZerner       .... off
 Static damping         CNVDamp         .... on
   Fraction old density DampFac         ....    0.7000
   Max. Damping (<1)    DampMax         ....    0.9800
   Min. Damping (>=0)   DampMin         ....    0.0000
   Turn off err/grad.   DampErr         ....    0.1000
 Fernandez-Rico         CNVRico         .... off

SCF Procedure:
 Maximum # iterations   MaxIter         ....   125
 SCF integral mode      SCFMode         .... Direct
   Integral package                     .... SHARK and LIBINT hybrid scheme
 Reset frequency        DirectResetFreq ....    20
 Integral Threshold     Thresh          ....  2.500e-11 Eh
 Primitive CutOff       TCut            ....  2.500e-12 Eh

Convergence Tolerance:
 Convergence Check Mode ConvCheckMode   .... Total+1el-Energy
 Convergence forced     ConvForced      .... 0
 Energy Change          TolE            ....  1.000e-08 Eh
 1-El. energy change                    ....  1.000e-05 Eh
 Orbital Gradient       TolG            ....  1.000e-05
 Orbital Rotation angle TolX            ....  1.000e-05
 DIIS Error             TolErr          ....  5.000e-07


Diagonalization of the overlap matrix:
Smallest eigenvalue                        ... 7.593e-07
Time for diagonalization                   ...    0.274 sec
Threshold for overlap eigenvalues          ... 1.000e-08
Number of eigenvalues below threshold      ... 0
Time for construction of square roots      ...    0.104 sec
Total time needed                          ...    0.381 sec

Time for model grid setup =    0.499 sec

------------------------------
INITIAL GUESS: MODEL POTENTIAL
------------------------------
Loading Hartree-Fock densities                     ... done
Calculating cut-offs                               ... done
Initializing the effective Hamiltonian             ... done
Setting up the integral package (SHARK)            ... done
Starting the Coulomb interaction                   ... done (   1.1 sec)
Reading the grid                                   ... done
Mapping shells                                     ... done
Starting the XC term evaluation                    ... done (   1.0 sec)
  promolecular density results
     # of electrons  =    149.983839472
     EX              =   -124.528077591
     EC              =     -5.081200293
     EX+EC           =   -129.609277884
Transforming the Hamiltonian                       ... done (   0.1 sec)
Diagonalizing the Hamiltonian                      ... done (   0.1 sec)
Back transforming the eigenvectors                 ... done (   0.0 sec)
Now organizing SCF variables                       ... done
                      ------------------
                      INITIAL GUESS DONE (   2.7 sec)
                      ------------------
-------------------
DFT GRID GENERATION
-------------------

General Integration Accuracy     IntAcc      ... 4.388
Radial Grid Type                 RadialGrid  ... OptM3 with GC (2021)
Angular Grid (max. ang.)         AngularGrid ... 4 (Lebedev-302)
Angular grid pruning method      GridPruning ... 4 (adaptive)
Weight generation scheme         WeightScheme... Becke
Basis function cutoff            BFCut       ... 1.0000e-11
Integration weight cutoff        WCut        ... 1.0000e-14
Angular grids for H and He will be reduced by one unit
Partially contracted basis set               ... off
Rotationally invariant grid construction     ... off

Total number of grid points                  ...   161651
Total number of batches                      ...     2539
Average number of points per batch           ...       63
Average number of grid points per atom       ...     5388
Time for grid setup =    1.489 sec

--------------------
COSX GRID GENERATION
--------------------

GRIDX 1
-------
General Integration Accuracy     IntAcc      ... 3.816
Radial Grid Type                 RadialGrid  ... OptM3 with GC (2021)
Angular Grid (max. ang.)         AngularGrid ... 1 (Lebedev-50)
Angular grid pruning method      GridPruning ... 4 (adaptive)
Weight generation scheme         WeightScheme... Becke
Basis function cutoff            BFCut       ... 1.0000e-11
Integration weight cutoff        WCut        ... 1.0000e-14
Angular grids for H and He will be reduced by one unit
Partially contracted basis set               ... on
Rotationally invariant grid construction     ... off

Total number of grid points                  ...    20521
Total number of batches                      ...      335
Average number of points per batch           ...       61
Average number of grid points per atom       ...      684
UseSFitting                                  ... on

GRIDX 2
-------
General Integration Accuracy     IntAcc      ... 4.020
Radial Grid Type                 RadialGrid  ... OptM3 with GC (2021)
Angular Grid (max. ang.)         AngularGrid ... 2 (Lebedev-110)
Angular grid pruning method      GridPruning ... 4 (adaptive)
Weight generation scheme         WeightScheme... Becke
Basis function cutoff            BFCut       ... 1.0000e-11
Integration weight cutoff        WCut        ... 1.0000e-14
Angular grids for H and He will be reduced by one unit
Partially contracted basis set               ... on
Rotationally invariant grid construction     ... off

Total number of grid points                  ...    46234
Total number of batches                      ...      737
Average number of points per batch           ...       62
Average number of grid points per atom       ...     1541
UseSFitting                                  ... on

GRIDX 3
-------
General Integration Accuracy     IntAcc      ... 4.338
Radial Grid Type                 RadialGrid  ... OptM3 with GC (2021)
Angular Grid (max. ang.)         AngularGrid ... 3 (Lebedev-194)
Angular grid pruning method      GridPruning ... 4 (adaptive)
Weight generation scheme         WeightScheme... Becke
Basis function cutoff            BFCut       ... 1.0000e-11
Integration weight cutoff        WCut        ... 1.0000e-14
Angular grids for H and He will be reduced by one unit
Partially contracted basis set               ... on
Rotationally invariant grid construction     ... off

Total number of grid points                  ...   102036
Total number of batches                      ...     1609
Average number of points per batch           ...       63
Average number of grid points per atom       ...     3401
UseSFitting                                  ... on

Time for X-Grid setup             =    3.341 sec

--------------
SCF ITERATIONS
--------------
ITER       Energy         Delta-E        Max-DP      RMS-DP      [F,P]     Damp
               ***  Starting incremental Fock matrix formation  ***
  0   -917.0681038353   0.000000000000 0.11405842  0.00161743  0.1828104 0.7000
  1   -917.3974244823  -0.329320647011 0.07538789  0.00128590  0.0850673 0.7000
                               ***Turning on DIIS***
  2   -917.4284800694  -0.031055587094 0.05735252  0.00096431  0.1138005 0.7000
  3   -917.5350352959  -0.106555226548 0.13793178  0.00236010  0.0499571 0.0000
  4   -917.6860668610  -0.151031565040 0.04763275  0.00054381  0.0912462 0.0000
  5   -917.7060239615  -0.019957100501 0.02604093  0.00038874  0.0149186 0.0000
  6   -917.7072148251  -0.001190863618 0.02172224  0.00026420  0.0084542 0.0000
                      *** Initiating the SOSCF procedure ***
                           *** Shutting down DIIS ***
                      *** Re-Reading the Fockian *** 
                      *** Removing any level shift *** 
ITER      Energy       Delta-E        Grad      Rot      Max-DP    RMS-DP
  7   -917.70753623  -0.0003214003  0.001978  0.001978  0.013610  0.000135
               *** Restarting incremental Fock matrix formation ***
  8   -917.70731124   0.0002249904  0.001480  0.024545  0.114746  0.001494
  9   -917.70620471   0.0011065220  0.018159  0.031346  0.050469  0.000718
 10   -917.70741977  -0.0012150581  0.000411  0.002340  0.034071  0.000488
 11   -917.70741743   0.0000023413  0.000798  0.001221  0.004733  0.000070
 12   -917.70743573  -0.0000183042  0.000159  0.001203  0.002179  0.000035
 13   -917.70743592  -0.0000001871  0.000188  0.000358  0.000871  0.000012
 14   -917.70743720  -0.0000012746  0.000028  0.000130  0.000628  0.000009
 15   -917.70743723  -0.0000000377  0.000029  0.000073  0.000596  0.000009
 16   -917.70743730  -0.0000000676  0.000004  0.000037  0.000415  0.000006
 17   -917.70743729   0.0000000062  0.000005  0.000009  0.000082  0.000001
 18   -917.70743727   0.0000000202  0.000003  0.000008  0.000106  0.000002
 19   -917.70743727   0.0000000067  0.000004  0.000005  0.000044  0.000001
                  ***Gradient check signals convergence***
              ***Rediagonalizing the Fockian in SOSCF/NRSCF***

               *****************************************************
               *                     SUCCESS                       *
               *           SCF CONVERGED AFTER  20 CYCLES          *
               *****************************************************

Old exchange energy                            =    -68.229389564 Eh
New exchange energy                            =    -68.229240687 Eh
Exchange energy change after final integration =      0.000148877 Eh
Total energy after final integration           =   -917.707288400 Eh
Final COS-X integration done in                =    72.812 sec

----------------
TOTAL SCF ENERGY
----------------

Total Energy       :         -917.70728840 Eh          -24972.08487 eV

Components:
Nuclear Repulsion  :         1727.25040047 Eh           47000.87287 eV
Electronic Energy  :        -2644.95768887 Eh          -71972.95775 eV
One Electron Energy:        -4668.19720977 Eh         -127028.10406 eV
Two Electron Energy:         2023.23952090 Eh           55055.14631 eV
Max COSX asymmetry :            0.00000549 Eh               0.00015 eV

Virial components:
Potential Energy   :        -1830.94385523 Eh          -49822.51523 eV
Kinetic Energy     :          913.23656683 Eh           24850.43035 eV
Virial Ratio       :            2.00489547


DFT components:
N(Alpha)           :       75.000142132465 electrons
N(Beta)            :       75.000142132465 electrons
N(Total)           :      150.000284264931 electrons
E(XC)              :      -63.834521046569 Eh       
DFET-embed. en.    :        0.000000000000 Eh       

---------------
SCF CONVERGENCE
---------------

  Last Energy change         ...   -9.7899e-09  Tolerance :   1.0000e-08
  Last MAX-Density change    ...    1.3323e-15  Tolerance :   1.0000e-07
  Last RMS-Density change    ...    1.2367e-17  Tolerance :   5.0000e-09
  Last Orbital Gradient      ...    3.1555e-07  Tolerance :   1.0000e-05
  Last Orbital Rotation      ...    1.3463e-06  Tolerance :   1.0000e-05

             **** THE GBW FILE WAS UPDATED (five_six_two_one_ten_four_loss.gbw) ****
             **** DENSITY five_six_two_one_ten_four_loss.scfp WAS UPDATED ****
             **** ENERGY FILE WAS UPDATED (five_six_two_one_ten_four_loss.en.tmp) ****
             **** THE GBW FILE WAS UPDATED (five_six_two_one_ten_four_loss.gbw) ****
             **** DENSITY five_six_two_one_ten_four_loss.scfp WAS UPDATED ****
----------------
ORBITAL ENERGIES
----------------

  NO   OCC          E(Eh)            E(eV) 
   0   2.0000     -10.607746      -288.6514 
   1   2.0000     -10.601213      -288.4737 
   2   2.0000     -10.600003      -288.4408 
   3   2.0000     -10.598006      -288.3864 
   4   2.0000     -10.597084      -288.3613 
   5   2.0000     -10.592896      -288.2473 
   6   2.0000     -10.592229      -288.2292 
   7   2.0000     -10.590486      -288.1818 
   8   2.0000     -10.589782      -288.1626 
   9   2.0000     -10.589709      -288.1606 
  10   2.0000     -10.587511      -288.1008 
  11   2.0000     -10.586380      -288.0700 
  12   2.0000     -10.585331      -288.0415 
  13   2.0000     -10.582073      -287.9528 
  14   2.0000     -10.575595      -287.7766 
  15   2.0000     -10.571944      -287.6772 
  16   2.0000     -10.571701      -287.6706 
  17   2.0000     -10.569973      -287.6236 
  18   2.0000     -10.569234      -287.6035 
  19   2.0000     -10.565092      -287.4908 
  20   2.0000     -10.563025      -287.4345 
  21   2.0000     -10.560342      -287.3615 
  22   2.0000     -10.556784      -287.2647 
  23   2.0000     -10.553968      -287.1881 
  24   2.0000      -1.044527       -28.4230 
  25   2.0000      -1.006407       -27.3857 
  26   2.0000      -1.005132       -27.3510 
  27   2.0000      -0.955436       -25.9987 
  28   2.0000      -0.952013       -25.9056 
  29   2.0000      -0.929372       -25.2895 
  30   2.0000      -0.901806       -24.5394 
  31   2.0000      -0.882681       -24.0190 
  32   2.0000      -0.858918       -23.3723 
  33   2.0000      -0.856910       -23.3177 
  34   2.0000      -0.830875       -22.6093 
  35   2.0000      -0.822825       -22.3902 
  36   2.0000      -0.748359       -20.3639 
  37   2.0000      -0.740549       -20.1513 
  38   2.0000      -0.735090       -20.0028 
  39   2.0000      -0.719446       -19.5771 
  40   2.0000      -0.715054       -19.4576 
  41   2.0000      -0.664044       -18.0696 
  42   2.0000      -0.638154       -17.3651 
  43   2.0000      -0.629656       -17.1338 
  44   2.0000      -0.611174       -16.6309 
  45   2.0000      -0.605995       -16.4900 
  46   2.0000      -0.599823       -16.3220 
  47   2.0000      -0.562545       -15.3076 
  48   2.0000      -0.555353       -15.1119 
  49   2.0000      -0.546590       -14.8735 
  50   2.0000      -0.540085       -14.6965 
  51   2.0000      -0.533297       -14.5117 
  52   2.0000      -0.526822       -14.3356 
  53   2.0000      -0.520304       -14.1582 
  54   2.0000      -0.508648       -13.8410 
  55   2.0000      -0.497093       -13.5266 
  56   2.0000      -0.488567       -13.2946 
  57   2.0000      -0.487213       -13.2577 
  58   2.0000      -0.470471       -12.8022 
  59   2.0000      -0.468157       -12.7392 
  60   2.0000      -0.455647       -12.3988 
  61   2.0000      -0.439405       -11.9568 
  62   2.0000      -0.427905       -11.6439 
  63   2.0000      -0.424963       -11.5638 
  64   2.0000      -0.420263       -11.4359 
  65   2.0000      -0.405973       -11.0471 
  66   2.0000      -0.357950        -9.7403 
  67   2.0000      -0.348725        -9.4893 
  68   2.0000      -0.343332        -9.3425 
  69   2.0000      -0.336203        -9.1486 
  70   2.0000      -0.330306        -8.9881 
  71   2.0000      -0.329696        -8.9715 
  72   2.0000      -0.276142        -7.5142 
  73   2.0000      -0.271389        -7.3849 
  74   2.0000      -0.224024        -6.0960 
  75   0.0000      -0.181432        -4.9370 
  76   0.0000      -0.059014        -1.6058 
  77   0.0000      -0.052737        -1.4350 
  78   0.0000      -0.048677        -1.3246 
  79   0.0000      -0.041119        -1.1189 
  80   0.0000      -0.011198        -0.3047 
  81   0.0000      -0.003123        -0.0850 
  82   0.0000       0.005396         0.1468 
  83   0.0000       0.046273         1.2591 
  84   0.0000       0.073787         2.0078 
  85   0.0000       0.087356         2.3771 
  86   0.0000       0.088014         2.3950 
  87   0.0000       0.101814         2.7705 
  88   0.0000       0.111188         3.0256 
  89   0.0000       0.113389         3.0855 
  90   0.0000       0.117506         3.1975 
  91   0.0000       0.121363         3.3025 
  92   0.0000       0.122867         3.3434 
  93   0.0000       0.130303         3.5457 
  94   0.0000       0.132318         3.6005 
  95   0.0000       0.135193         3.6788 
  96   0.0000       0.168346         4.5809 
  97   0.0000       0.170595         4.6421 
  98   0.0000       0.178479         4.8567 
  99   0.0000       0.179260         4.8779 
 100   0.0000       0.186215         5.0672 
 101   0.0000       0.195995         5.3333 
 102   0.0000       0.196510         5.3473 
 103   0.0000       0.200566         5.4577 
 104   0.0000       0.200931         5.4676 
 105   0.0000       0.211407         5.7527 
 106   0.0000       0.214970         5.8496 
 107   0.0000       0.224194         6.1006 
 108   0.0000       0.226805         6.1717 
 109   0.0000       0.229894         6.2557 
 110   0.0000       0.237810         6.4711 
 111   0.0000       0.241248         6.5647 
 112   0.0000       0.245526         6.6811 
 113   0.0000       0.254383         6.9221 
 114   0.0000       0.255918         6.9639 
 115   0.0000       0.260952         7.1009 
 116   0.0000       0.261845         7.1252 
 117   0.0000       0.270458         7.3595 
 118   0.0000       0.273946         7.4545 
 119   0.0000       0.274621         7.4728 
 120   0.0000       0.277246         7.5442 
 121   0.0000       0.280398         7.6300 
 122   0.0000       0.287392         7.8203 
 123   0.0000       0.288081         7.8391 
 124   0.0000       0.298201         8.1145 
 125   0.0000       0.299399         8.1471 
 126   0.0000       0.304954         8.2982 
 127   0.0000       0.309627         8.4254 
 128   0.0000       0.311612         8.4794 
 129   0.0000       0.313321         8.5259 
 130   0.0000       0.314862         8.5678 
 131   0.0000       0.318572         8.6688 
 132   0.0000       0.324695         8.8354 
 133   0.0000       0.330126         8.9832 
 134   0.0000       0.332661         9.0522 
 135   0.0000       0.343311         9.3420 
 136   0.0000       0.346411         9.4263 
 137   0.0000       0.347179         9.4472 
 138   0.0000       0.356263         9.6944 
 139   0.0000       0.358249         9.7484 
 140   0.0000       0.361548         9.8382 
 141   0.0000       0.368708        10.0330 
 142   0.0000       0.372806        10.1446 
 143   0.0000       0.374432        10.1888 
 144   0.0000       0.376902        10.2560 
 145   0.0000       0.380200        10.3458 
 146   0.0000       0.382309        10.4032 
 147   0.0000       0.385511        10.4903 
 148   0.0000       0.388975        10.5845 
 149   0.0000       0.391077        10.6417 
 150   0.0000       0.397659        10.8209 
 151   0.0000       0.407104        11.0779 
 152   0.0000       0.409598        11.1457 
 153   0.0000       0.414806        11.2875 
 154   0.0000       0.418555        11.3895 
 155   0.0000       0.422258        11.4902 
 156   0.0000       0.426921        11.6171 
 157   0.0000       0.434613        11.8264 
 158   0.0000       0.445425        12.1206 
 159   0.0000       0.451492        12.2857 
 160   0.0000       0.451842        12.2952 
 161   0.0000       0.457260        12.4427 
 162   0.0000       0.464421        12.6375 
 163   0.0000       0.467748        12.7281 
 164   0.0000       0.467764        12.7285 
 165   0.0000       0.477390        12.9904 
 166   0.0000       0.489360        13.3162 
 167   0.0000       0.490770        13.3545 
 168   0.0000       0.495680        13.4881 
 169   0.0000       0.504343        13.7239 
 170   0.0000       0.506523        13.7832 
 171   0.0000       0.507948        13.8220 
 172   0.0000       0.509711        13.8699 
 173   0.0000       0.520940        14.1755 
 174   0.0000       0.537553        14.6276 
 175   0.0000       0.537826        14.6350 
 176   0.0000       0.539471        14.6797 
 177   0.0000       0.542162        14.7530 
 178   0.0000       0.542701        14.7676 
 179   0.0000       0.547180        14.8895 
 180   0.0000       0.549618        14.9559 
 181   0.0000       0.560180        15.2433 
 182   0.0000       0.563318        15.3287 
 183   0.0000       0.572840        15.5878 
 184   0.0000       0.579991        15.7824 
 185   0.0000       0.591670        16.1002 
 186   0.0000       0.594897        16.1880 
 187   0.0000       0.600604        16.3433 
 188   0.0000       0.624123        16.9833 
 189   0.0000       0.624849        17.0030 
 190   0.0000       0.626456        17.0467 
 191   0.0000       0.628355        17.0984 
 192   0.0000       0.629167        17.1205 
 193   0.0000       0.637388        17.3442 
 194   0.0000       0.641597        17.4587 
 195   0.0000       0.644926        17.5493 
 196   0.0000       0.650357        17.6971 
 197   0.0000       0.654167        17.8008 
 198   0.0000       0.662248        18.0207 
 199   0.0000       0.663064        18.0429 
 200   0.0000       0.665993        18.1226 
 201   0.0000       0.675694        18.3866 
 202   0.0000       0.682422        18.5696 
 203   0.0000       0.688531        18.7359 
 204   0.0000       0.688684        18.7401 
 205   0.0000       0.697672        18.9846 
 206   0.0000       0.702245        19.1091 
 207   0.0000       0.709868        19.3165 
 208   0.0000       0.719232        19.5713 
 209   0.0000       0.721452        19.6317 
 210   0.0000       0.721772        19.6404 
 211   0.0000       0.724071        19.7030 
 212   0.0000       0.746561        20.3150 
 213   0.0000       0.749899        20.4058 
 214   0.0000       0.759858        20.6768 
 215   0.0000       0.760043        20.6818 
 216   0.0000       0.761219        20.7138 
 217   0.0000       0.766122        20.8472 
 218   0.0000       0.775622        21.1057 
 219   0.0000       0.777614        21.1599 
 220   0.0000       0.782340        21.2886 
 221   0.0000       0.782461        21.2918 
 222   0.0000       0.790438        21.5089 
 223   0.0000       0.790554        21.5121 
 224   0.0000       0.793153        21.5828 
 225   0.0000       0.799421        21.7533 
 226   0.0000       0.806428        21.9440 
 227   0.0000       0.815531        22.1917 
 228   0.0000       0.818182        22.2639 
 229   0.0000       0.822255        22.3747 
 230   0.0000       0.827729        22.5237 
 231   0.0000       0.837951        22.8018 
 232   0.0000       0.848814        23.0974 
 233   0.0000       0.850258        23.1367 
 234   0.0000       0.856201        23.2984 
 235   0.0000       0.857358        23.3299 
 236   0.0000       0.866480        23.5781 
 237   0.0000       0.874802        23.8046 
 238   0.0000       0.878553        23.9067 
 239   0.0000       0.879080        23.9210 
 240   0.0000       0.887546        24.1514 
 241   0.0000       0.892902        24.2971 
 242   0.0000       0.898250        24.4426 
 243   0.0000       0.902312        24.5531 
 244   0.0000       0.907251        24.6876 
 245   0.0000       0.911654        24.8074 
 246   0.0000       0.914810        24.8933 
 247   0.0000       0.935723        25.4623 
 248   0.0000       0.943452        25.6726 
 249   0.0000       0.944925        25.7127 
 250   0.0000       0.950224        25.8569 
 251   0.0000       0.951860        25.9014 
 252   0.0000       0.965548        26.2739 
 253   0.0000       0.984767        26.7969 
 254   0.0000       0.988581        26.9007 
 255   0.0000       0.991505        26.9802 
 256   0.0000       0.997848        27.1528 
 257   0.0000       1.012611        27.5545 
 258   0.0000       1.017551        27.6890 
 259   0.0000       1.024610        27.8810 
 260   0.0000       1.043576        28.3971 
 261   0.0000       1.055611        28.7246 
 262   0.0000       1.059934        28.8423 
 263   0.0000       1.064509        28.9668 
 264   0.0000       1.068835        29.0845 
 265   0.0000       1.071514        29.1574 
 266   0.0000       1.088728        29.6258 
 267   0.0000       1.090586        29.6764 
 268   0.0000       1.090669        29.6786 
 269   0.0000       1.099009        29.9056 
 270   0.0000       1.110153        30.2088 
 271   0.0000       1.136094        30.9147 
 272   0.0000       1.142350        31.0849 
 273   0.0000       1.156198        31.4618 
 274   0.0000       1.157211        31.4893 
 275   0.0000       1.164863        31.6975 
 276   0.0000       1.186881        32.2967 
 277   0.0000       1.199813        32.6486 
 278   0.0000       1.204879        32.7864 
 279   0.0000       1.210515        32.9398 
 280   0.0000       1.212150        32.9843 
 281   0.0000       1.220055        33.1994 
 282   0.0000       1.224605        33.3232 
 283   0.0000       1.235334        33.6151 
 284   0.0000       1.235403        33.6170 
 285   0.0000       1.237161        33.6649 
 286   0.0000       1.238919        33.7127 
 287   0.0000       1.246246        33.9121 
 288   0.0000       1.252661        34.0866 
 289   0.0000       1.255422        34.1618 
 290   0.0000       1.261915        34.3385 
 291   0.0000       1.280884        34.8546 
 292   0.0000       1.289268        35.0828 
 293   0.0000       1.292987        35.1840 
 294   0.0000       1.300889        35.3990 
 295   0.0000       1.303698        35.4754 
 296   0.0000       1.308192        35.5977 
 297   0.0000       1.315143        35.7869 
 298   0.0000       1.318866        35.8882 
 299   0.0000       1.325934        36.0805 
 300   0.0000       1.331703        36.2375 
 301   0.0000       1.341263        36.4976 
 302   0.0000       1.351808        36.7846 
 303   0.0000       1.363401        37.1000 
 304   0.0000       1.366970        37.1971 
 305   0.0000       1.374044        37.3896 
 306   0.0000       1.377511        37.4840 
 307   0.0000       1.384627        37.6776 
 308   0.0000       1.388808        37.7914 
 309   0.0000       1.405254        38.2389 
 310   0.0000       1.413835        38.4724 
 311   0.0000       1.418464        38.5984 
 312   0.0000       1.422324        38.7034 
 313   0.0000       1.426351        38.8130 
 314   0.0000       1.429996        38.9122 
 315   0.0000       1.431363        38.9494 
 316   0.0000       1.436929        39.1008 
 317   0.0000       1.438200        39.1354 
 318   0.0000       1.455392        39.6032 
 319   0.0000       1.464803        39.8593 
 320   0.0000       1.477060        40.1928 
 321   0.0000       1.484858        40.4050 
 322   0.0000       1.500216        40.8230 
 323   0.0000       1.505315        40.9617 
 324   0.0000       1.519744        41.3543 
 325   0.0000       1.528410        41.5902 
 326   0.0000       1.528846        41.6020 
 327   0.0000       1.530438        41.6453 
 328   0.0000       1.533854        41.7383 
 329   0.0000       1.545071        42.0435 
 330   0.0000       1.555663        42.3317 
 331   0.0000       1.572390        42.7869 
 332   0.0000       1.573262        42.8106 
 333   0.0000       1.574105        42.8336 
 334   0.0000       1.579381        42.9771 
 335   0.0000       1.590459        43.2786 
 336   0.0000       1.591233        43.2997 
 337   0.0000       1.603745        43.6401 
 338   0.0000       1.610528        43.8247 
 339   0.0000       1.614083        43.9214 
 340   0.0000       1.617737        44.0209 
 341   0.0000       1.633225        44.4423 
 342   0.0000       1.638063        44.5740 
 343   0.0000       1.646614        44.8067 
 344   0.0000       1.649390        44.8822 
 345   0.0000       1.653479        44.9934 
 346   0.0000       1.655734        45.0548 
 347   0.0000       1.656868        45.0857 
 348   0.0000       1.662109        45.2283 
 349   0.0000       1.669720        45.4354 
 350   0.0000       1.685832        45.8738 
 351   0.0000       1.701118        46.2898 
 352   0.0000       1.709829        46.5268 
 353   0.0000       1.709936        46.5297 
 354   0.0000       1.713743        46.6333 
 355   0.0000       1.726864        46.9903 
 356   0.0000       1.729150        47.0526 
 357   0.0000       1.732860        47.1535 
 358   0.0000       1.737102        47.2689 
 359   0.0000       1.750302        47.6282 
 360   0.0000       1.752977        47.7009 
 361   0.0000       1.760761        47.9128 
 362   0.0000       1.775508        48.3140 
 363   0.0000       1.782646        48.5083 
 364   0.0000       1.794091        48.8197 
 365   0.0000       1.802004        49.0350 
 366   0.0000       1.828960        49.7685 
 367   0.0000       1.832540        49.8660 
 368   0.0000       1.836775        49.9812 
 369   0.0000       1.860919        50.6382 
 370   0.0000       1.876168        51.0531 
 371   0.0000       1.879765        51.1510 
 372   0.0000       1.890242        51.4361 
 373   0.0000       1.899008        51.6746 
 374   0.0000       1.913702        52.0745 
 375   0.0000       1.917294        52.1722 
 376   0.0000       1.927004        52.4365 
 377   0.0000       1.929942        52.5164 
 378   0.0000       1.953407        53.1549 
 379   0.0000       1.972947        53.6866 
 380   0.0000       1.976968        53.7960 
 381   0.0000       1.979730        53.8712 
 382   0.0000       1.989133        54.1271 
 383   0.0000       2.003653        54.5222 
 384   0.0000       2.013010        54.7768 
 385   0.0000       2.013818        54.7988 
 386   0.0000       2.021382        55.0046 
 387   0.0000       2.033579        55.3365 
 388   0.0000       2.036380        55.4127 
 389   0.0000       2.050311        55.7918 
 390   0.0000       2.065589        56.2075 
 391   0.0000       2.075829        56.4862 
 392   0.0000       2.091579        56.9147 
 393   0.0000       2.112252        57.4773 
 394   0.0000       2.116519        57.5934 
 395   0.0000       2.122889        57.7667 
 396   0.0000       2.137569        58.1662 
 397   0.0000       2.150898        58.5289 
 398   0.0000       2.153266        58.5934 
 399   0.0000       2.153489        58.5994 
 400   0.0000       2.157317        58.7036 
 401   0.0000       2.177760        59.2599 
 402   0.0000       2.181197        59.3534 
 403   0.0000       2.201546        59.9071 
 404   0.0000       2.217455        60.3400 
 405   0.0000       2.221783        60.4578 
 406   0.0000       2.228004        60.6271 
 407   0.0000       2.230923        60.7065 
 408   0.0000       2.234761        60.8109 
 409   0.0000       2.237247        60.8786 
 410   0.0000       2.244100        61.0651 
 411   0.0000       2.252063        61.2818 
 412   0.0000       2.257919        61.4411 
 413   0.0000       2.279651        62.0324 
 414   0.0000       2.285733        62.1980 
 415   0.0000       2.286202        62.2107 
 416   0.0000       2.289653        62.3046 
 417   0.0000       2.299748        62.5793 
 418   0.0000       2.303342        62.6771 
 419   0.0000       2.325252        63.2733 
 420   0.0000       2.329415        63.3866 
 421   0.0000       2.335456        63.5510 
 422   0.0000       2.343510        63.7701 
 423   0.0000       2.375499        64.6406 
 424   0.0000       2.387690        64.9724 
 425   0.0000       2.391277        65.0700 
 426   0.0000       2.409391        65.5629 
 427   0.0000       2.437669        66.3323 
 428   0.0000       2.440725        66.4155 
 429   0.0000       2.441671        66.4412 
 430   0.0000       2.453822        66.7719 
 431   0.0000       2.458004        66.8857 
 432   0.0000       2.466769        67.1242 
 433   0.0000       2.483257        67.5729 
 434   0.0000       2.499801        68.0230 
 435   0.0000       2.516574        68.4794 
 436   0.0000       2.525900        68.7332 
 437   0.0000       2.536411        69.0193 
 438   0.0000       2.548796        69.3563 
 439   0.0000       2.558865        69.6302 
 440   0.0000       2.571626        69.9775 
 441   0.0000       2.584759        70.3349 
 442   0.0000       2.597671        70.6862 
 443   0.0000       2.606249        70.9197 
 444   0.0000       2.607910        70.9648 
 445   0.0000       2.609831        71.0171 
 446   0.0000       2.618127        71.2429 
 447   0.0000       2.624351        71.4122 
 448   0.0000       2.628279        71.5191 
 449   0.0000       2.633913        71.6724 
 450   0.0000       2.640176        71.8428 
 451   0.0000       2.644013        71.9472 
 452   0.0000       2.648102        72.0585 
 453   0.0000       2.649134        72.0866 
 454   0.0000       2.671227        72.6878 
 455   0.0000       2.685610        73.0792 
 456   0.0000       2.687585        73.1329 
 457   0.0000       2.691583        73.2417 
 458   0.0000       2.696138        73.3657 
 459   0.0000       2.707483        73.6744 
[...]
|  sn= 9 | S(rot)=       0.36832161 Eh    231.12 kcal/mol|
|  sn=10 | S(rot)=       0.36631968 Eh    229.87 kcal/mol|
|  sn=11 | S(rot)=       0.36450871 Eh    228.73 kcal/mol|
|  sn=12 | S(rot)=       0.36285543 Eh    227.69 kcal/mol|
 --------------------------------------------------------


-------------------
GIBBS FREE ENERGY
-------------------

The Gibbs free energy is G = H - T*S

Total enthalpy                    ...   -916.04612802 Eh 
Total entropy correction          ...     -5.03641705 Eh  -3160.39 kcal/mol
-----------------------------------------------------------------------
Final Gibbs free energy         ...   -921.08254507 Eh

For completeness - the Gibbs free energy minus the electronic energy
G-E(el)                           ...     -3.37030869 Eh  -2114.90 kcal/mol


The first frequency considered to be a vibration is 7
The total number of vibrations considered is 83


--------------------------
THERMOCHEMISTRY AT 8000.00K
--------------------------

Temperature         ... 8000.00 K
Pressure            ... 1.00 atm
Total Mass          ... 294.31 AMU

Throughout the following assumptions are being made:
  (1) The electronic state is orbitally nondegenerate
  (2) There are no thermally accessible electronically excited states
  (3) Hindered rotations indicated by low frequency modes are not
      treated as such but are treated as vibrations and this may
      cause some error
  (4) All equations used are the standard statistical mechanics
      equations for an ideal gas
  (5) All vibrations are strictly harmonic

freq.      69.14  E(vib)   ...      15.80 
freq.      91.38  E(vib)   ...      15.77 
freq.     129.64  E(vib)   ...      15.71 
freq.     166.58  E(vib)   ...      15.66 
freq.     203.79  E(vib)   ...      15.61 
freq.     226.70  E(vib)   ...      15.58 
freq.     271.85  E(vib)   ...      15.51 
freq.     307.42  E(vib)   ...      15.46 
freq.     325.31  E(vib)   ...      15.44 
freq.     355.48  E(vib)   ...      15.40 
freq.     363.83  E(vib)   ...      15.38 
freq.     371.83  E(vib)   ...      15.37 
freq.     388.32  E(vib)   ...      15.35 
freq.     400.30  E(vib)   ...      15.33 
freq.     431.11  E(vib)   ...      15.29 
freq.     436.12  E(vib)   ...      15.28 
freq.     449.67  E(vib)   ...      15.26 
freq.     465.18  E(vib)   ...      15.24 
freq.     467.55  E(vib)   ...      15.24 
freq.     498.28  E(vib)   ...      15.20 
freq.     511.16  E(vib)   ...      15.18 
freq.     517.53  E(vib)   ...      15.17 
freq.     524.26  E(vib)   ...      15.16 
freq.     538.27  E(vib)   ...      15.14 
freq.     560.31  E(vib)   ...      15.11 
freq.     585.94  E(vib)   ...      15.08 
freq.     619.78  E(vib)   ...      15.03 
freq.     655.99  E(vib)   ...      14.98 
freq.     660.50  E(vib)   ...      14.97 
freq.     668.28  E(vib)   ...      14.96 
freq.     681.86  E(vib)   ...      14.94 
freq.     722.52  E(vib)   ...      14.89 
freq.     728.64  E(vib)   ...      14.88 
freq.     785.54  E(vib)   ...      14.80 
freq.     822.13  E(vib)   ...      14.75 
freq.     824.96  E(vib)   ...      14.75 
freq.     834.32  E(vib)   ...      14.74 
freq.     842.77  E(vib)   ...      14.72 
freq.     848.00  E(vib)   ...      14.72 
freq.     862.84  E(vib)   ...      14.70 
freq.     865.02  E(vib)   ...      14.69 
freq.     878.09  E(vib)   ...      14.68 
freq.     976.06  E(vib)   ...      14.54 
freq.     986.20  E(vib)   ...      14.53 
freq.     993.19  E(vib)   ...      14.52 
freq.     993.67  E(vib)   ...      14.52 
freq.    1031.68  E(vib)   ...      14.47 
freq.    1067.77  E(vib)   ...      14.42 
freq.    1120.60  E(vib)   ...      14.35 
freq.    1145.00  E(vib)   ...      14.32 
freq.    1170.23  E(vib)   ...      14.28 
freq.    1189.69  E(vib)   ...      14.26 
freq.    1210.65  E(vib)   ...      14.23 
freq.    1213.60  E(vib)   ...      14.23 
freq.    1238.24  E(vib)   ...      14.19 
freq.    1245.02  E(vib)   ...      14.18 
freq.    1269.23  E(vib)   ...      14.15 
freq.    1307.40  E(vib)   ...      14.10 
freq.    1321.98  E(vib)   ...      14.08 
freq.    1347.19  E(vib)   ...      14.05 
freq.    1369.01  E(vib)   ...      14.02 
freq.    1371.76  E(vib)   ...      14.02 
freq.    1394.33  E(vib)   ...      13.99 
freq.    1407.10  E(vib)   ...      13.97 
freq.    1410.10  E(vib)   ...      13.97 
freq.    1450.65  E(vib)   ...      13.91 
freq.    1464.52  E(vib)   ...      13.90 
freq.    1477.29  E(vib)   ...      13.88 
freq.    1496.96  E(vib)   ...      13.85 
freq.    1560.00  E(vib)   ...      13.77 
freq.    1579.04  E(vib)   ...      13.75 
freq.    1594.64  E(vib)   ...      13.73 
freq.    1640.10  E(vib)   ...      13.67 
freq.    1649.26  E(vib)   ...      13.66 
freq.    1705.90  E(vib)   ...      13.58 
freq.    2120.83  E(vib)   ...      13.06 
freq.    2141.21  E(vib)   ...      13.03 
freq.    3184.60  E(vib)   ...      11.78 
freq.    3191.51  E(vib)   ...      11.77 
freq.    3218.13  E(vib)   ...      11.74 
freq.    3233.06  E(vib)   ...      11.72 
freq.    3237.36  E(vib)   ...      11.72 
freq.    3247.49  E(vib)   ...      11.70 

------------
INNER ENERGY
------------

The inner energy is: U= E(el) + E(ZPE) + E(vib) + E(rot) + E(trans)
    E(el)   - is the total energy from the electronic structure calculation
              = E(kin-el) + E(nuc-el) + E(el-el) + E(nuc-nuc)
    E(ZPE)  - the the zero temperature vibrational energy from the frequency calculation
    E(vib)  - the the finite temperature correction to E(ZPE) due to population
              of excited vibrational states
    E(rot)  - is the rotational thermal energy
    E(trans)- is the translational thermal energy

Summary of contributions to the inner energy U:
Electronic energy                ...   -917.71223638 Eh
Zero point energy                ...      0.20259847 Eh     127.13 kcal/mol
Thermal vibrational correction   ...      1.90998497 Eh    1198.53 kcal/mol
Thermal rotational correction    ...      0.03800158 Eh      23.85 kcal/mol
Thermal translational correction ...      0.03800158 Eh      23.85 kcal/mol
-----------------------------------------------------------------------
Total thermal energy                   -915.52364978 Eh


Summary of corrections to the electronic energy:
(perhaps to be used in another calculation)
Total thermal correction                  1.98598813 Eh    1246.22 kcal/mol
Non-thermal (ZPE) correction              0.20259847 Eh     127.13 kcal/mol
-----------------------------------------------------------------------
Total correction                          2.18858659 Eh    1373.36 kcal/mol


--------
ENTHALPY
--------

The enthalpy is H = U + kB*T
                kB is Boltzmann's constant
Total free energy                 ...   -915.52364978 Eh 
Thermal Enthalpy correction       ...      0.02533514 Eh      15.90 kcal/mol
-----------------------------------------------------------------------
Total Enthalpy                    ...   -915.49831464 Eh


Note: Only C1 symmetry has been detected, increase convergence thresholds 
      if your molecule has a higher symmetry. Symmetry factor of 1.0 is   
      used for the rotational entropy correction. 
 

Note: Rotational entropy computed according to Herzberg 
Infrared and Raman Spectra, Chapter V,1, Van Nostrand Reinhold, 1945 
Point Group:  C1, Symmetry Number:   1  
Rotational constants in cm-1:     0.011941     0.011665     0.005901 

Vibrational entropy computed according to the QRRHO of S. Grimme
Chem.Eur.J. 2012 18 9955


-------
ENTROPY
-------

The entropy contributions are T*S = T*(S(el)+S(vib)+S(rot)+S(trans))
     S(el)   - electronic entropy
     S(vib)  - vibrational entropy
     S(rot)  - rotational entropy
     S(trans)- translational entropy
The entropies will be listed as multiplied by the temperature to get
units of energy

Electronic entropy                ...      0.00000000 Eh      0.00 kcal/mol
Vibrational entropy               ...      6.02496918 Eh   3780.72 kcal/mol
Rotational entropy                ...      0.55769320 Eh    349.96 kcal/mol
Translational entropy             ...      0.75572723 Eh    474.22 kcal/mol
-----------------------------------------------------------------------
Final entropy term                ...      7.33838961 Eh   4604.90 kcal/mol

In case the symmetry of your molecule has not been determined correctly
or in case you have a reason to use a different symmetry number we print 
out the resulting rotational entropy values for sn=1,12 :
 --------------------------------------------------------
|  sn= 1 | S(rot)=       0.55769320 Eh    349.96 kcal/mol|
|  sn= 2 | S(rot)=       0.54013274 Eh    338.94 kcal/mol|
|  sn= 3 | S(rot)=       0.52986053 Eh    332.49 kcal/mol|
|  sn= 4 | S(rot)=       0.52257228 Eh    327.92 kcal/mol|
|  sn= 5 | S(rot)=       0.51691907 Eh    324.37 kcal/mol|
|  sn= 6 | S(rot)=       0.51230007 Eh    321.47 kcal/mol|
|  sn= 7 | S(rot)=       0.50839476 Eh    319.02 kcal/mol|
|  sn= 8 | S(rot)=       0.50501182 Eh    316.90 kcal/mol|
|  sn= 9 | S(rot)=       0.50202786 Eh    315.03 kcal/mol|
|  sn=10 | S(rot)=       0.49935861 Eh    313.35 kcal/mol|
|  sn=11 | S(rot)=       0.49694399 Eh    311.84 kcal/mol|
|  sn=12 | S(rot)=       0.49473961 Eh    310.45 kcal/mol|
 --------------------------------------------------------


-------------------
GIBBS FREE ENERGY
-------------------

The Gibbs free energy is G = H - T*S

Total enthalpy                    ...   -915.49831464 Eh 
Total entropy correction          ...     -7.33838961 Eh  -4604.90 kcal/mol
-----------------------------------------------------------------------
Final Gibbs free energy         ...   -922.83670425 Eh

For completeness - the Gibbs free energy minus the electronic energy
G-E(el)                           ...     -5.12446788 Eh  -3215.65 kcal/mol


The first frequency considered to be a vibration is 7
The total number of vibrations considered is 83


--------------------------
THERMOCHEMISTRY AT 10000.00K
--------------------------

Temperature         ... 10000.00 K
Pressure            ... 1.00 atm
Total Mass          ... 294.31 AMU

Throughout the following assumptions are being made:
  (1) The electronic state is orbitally nondegenerate
  (2) There are no thermally accessible electronically excited states
  (3) Hindered rotations indicated by low frequency modes are not
      treated as such but are treated as vibrations and this may
      cause some error
  (4) All equations used are the standard statistical mechanics
      equations for an ideal gas
  (5) All vibrations are strictly harmonic

freq.      69.14  E(vib)   ...      19.77 
freq.      91.38  E(vib)   ...      19.74 
freq.     129.64  E(vib)   ...      19.69 
freq.     166.58  E(vib)   ...      19.64 
freq.     203.79  E(vib)   ...      19.58 
freq.     226.70  E(vib)   ...      19.55 
freq.     271.85  E(vib)   ...      19.49 
freq.     307.42  E(vib)   ...      19.44 
freq.     325.31  E(vib)   ...      19.41 
freq.     355.48  E(vib)   ...      19.37 
freq.     363.83  E(vib)   ...      19.36 
freq.     371.83  E(vib)   ...      19.35 
freq.     388.32  E(vib)   ...      19.32 
freq.     400.30  E(vib)   ...      19.31 
freq.     431.11  E(vib)   ...      19.26 
freq.     436.12  E(vib)   ...      19.26 
freq.     449.67  E(vib)   ...      19.24 
freq.     465.18  E(vib)   ...      19.21 
freq.     467.55  E(vib)   ...      19.21 
freq.     498.28  E(vib)   ...      19.17 
freq.     511.16  E(vib)   ...      19.15 
freq.     517.53  E(vib)   ...      19.14 
freq.     524.26  E(vib)   ...      19.13 
freq.     538.27  E(vib)   ...      19.11 
freq.     560.31  E(vib)   ...      19.08 
freq.     585.94  E(vib)   ...      19.05 
freq.     619.78  E(vib)   ...      19.00 
freq.     655.99  E(vib)   ...      18.95 
freq.     660.50  E(vib)   ...      18.94 
freq.     668.28  E(vib)   ...      18.93 
freq.     681.86  E(vib)   ...      18.91 
freq.     722.52  E(vib)   ...      18.86 
freq.     728.64  E(vib)   ...      18.85 
freq.     785.54  E(vib)   ...      18.77 
freq.     822.13  E(vib)   ...      18.72 
freq.     824.96  E(vib)   ...      18.72 
freq.     834.32  E(vib)   ...      18.70 
freq.     842.77  E(vib)   ...      18.69 
freq.     848.00  E(vib)   ...      18.68 
freq.     862.84  E(vib)   ...      18.66 
freq.     865.02  E(vib)   ...      18.66 
freq.     878.09  E(vib)   ...      18.64 
freq.     976.06  E(vib)   ...      18.51 
freq.     986.20  E(vib)   ...      18.50 
freq.     993.19  E(vib)   ...      18.49 
freq.     993.67  E(vib)   ...      18.49 
freq.    1031.68  E(vib)   ...      18.43 
freq.    1067.77  E(vib)   ...      18.39 
freq.    1120.60  E(vib)   ...      18.31 
freq.    1145.00  E(vib)   ...      18.28 
freq.    1170.23  E(vib)   ...      18.25 
freq.    1189.69  E(vib)   ...      18.22 
freq.    1210.65  E(vib)   ...      18.19 
freq.    1213.60  E(vib)   ...      18.19 
freq.    1238.24  E(vib)   ...      18.15 
freq.    1245.02  E(vib)   ...      18.15 
freq.    1269.23  E(vib)   ...      18.11 
freq.    1307.40  E(vib)   ...      18.06 
freq.    1321.98  E(vib)   ...      18.04 
freq.    1347.19  E(vib)   ...      18.01 
freq.    1369.01  E(vib)   ...      17.98 
freq.    1371.76  E(vib)   ...      17.98 
freq.    1394.33  E(vib)   ...      17.95 
freq.    1407.10  E(vib)   ...      17.93 
freq.    1410.10  E(vib)   ...      17.92 
freq.    1450.65  E(vib)   ...      17.87 
freq.    1464.52  E(vib)   ...      17.85 
freq.    1477.29  E(vib)   ...      17.84 
freq.    1496.96  E(vib)   ...      17.81 
freq.    1560.00  E(vib)   ...      17.73 
freq.    1579.04  E(vib)   ...      17.70 
freq.    1594.64  E(vib)   ...      17.68 
freq.    1640.10  E(vib)   ...      17.62 
freq.    1649.26  E(vib)   ...      17.61 
freq.    1705.90  E(vib)   ...      17.53 
freq.    2120.83  E(vib)   ...      16.99 
freq.    2141.21  E(vib)   ...      16.97 
freq.    3184.60  E(vib)   ...      15.67 
freq.    3191.51  E(vib)   ...      15.66 
freq.    3218.13  E(vib)   ...      15.63 
freq.    3233.06  E(vib)   ...      15.61 
freq.    3237.36  E(vib)   ...      15.60 
freq.    3247.49  E(vib)   ...      15.59 

------------
INNER ENERGY
------------

The inner energy is: U= E(el) + E(ZPE) + E(vib) + E(rot) + E(trans)
    E(el)   - is the total energy from the electronic structure calculation
              = E(kin-el) + E(nuc-el) + E(el-el) + E(nuc-nuc)
    E(ZPE)  - the the zero temperature vibrational energy from the frequency calculation
    E(vib)  - the the finite temperature correction to E(ZPE) due to population
              of excited vibrational states
    E(rot)  - is the rotational thermal energy
    E(trans)- is the translational thermal energy

Summary of contributions to the inner energy U:
Electronic energy                ...   -917.71223638 Eh
Zero point energy                ...      0.20259847 Eh     127.13 kcal/mol
Thermal vibrational correction   ...      2.43374425 Eh    1527.19 kcal/mol
Thermal rotational correction    ...      0.04750198 Eh      29.81 kcal/mol
Thermal translational correction ...      0.04750198 Eh      29.81 kcal/mol
-----------------------------------------------------------------------
Total thermal energy                   -914.98088971 Eh


Summary of corrections to the electronic energy:
(perhaps to be used in another calculation)
Total thermal correction                  2.52874820 Eh    1586.81 kcal/mol
Non-thermal (ZPE) correction              0.20259847 Eh     127.13 kcal/mol
-----------------------------------------------------------------------
Total correction                          2.73134667 Eh    1713.94 kcal/mol


--------
ENTHALPY
--------

The enthalpy is H = U + kB*T
                kB is Boltzmann's constant
Total free energy                 ...   -914.98088971 Eh 
Thermal Enthalpy correction       ...      0.03166893 Eh      19.87 kcal/mol
-----------------------------------------------------------------------
Total Enthalpy                    ...   -914.94922078 Eh


Note: Only C1 symmetry has been detected, increase convergence thresholds 
      if your molecule has a higher symmetry. Symmetry factor of 1.0 is   
      used for the rotational entropy correction. 
 

Note: Rotational entropy computed according to Herzberg 
Infrared and Raman Spectra, Chapter V,1, Van Nostrand Reinhold, 1945 
Point Group:  C1, Symmetry Number:   1  
Rotational constants in cm-1:     0.011941     0.011665     0.005901 

Vibrational entropy computed according to the QRRHO of S. Grimme
Chem.Eur.J. 2012 18 9955


-------
ENTROPY
-------

The entropy contributions are T*S = T*(S(el)+S(vib)+S(rot)+S(trans))
     S(el)   - electronic entropy
     S(vib)  - vibrational entropy
     S(rot)  - rotational entropy
     S(trans)- translational entropy
The entropies will be listed as multiplied by the temperature to get
units of energy

Electronic entropy                ...      0.00000000 Eh      0.00 kcal/mol
Vibrational entropy               ...      8.10861223 Eh   5088.22 kcal/mol
Rotational entropy                ...      0.70771626 Eh    444.10 kcal/mol
Translational entropy             ...      0.96232531 Eh    603.87 kcal/mol
-----------------------------------------------------------------------
Final entropy term                ...      9.77865380 Eh   6136.18 kcal/mol

In case the symmetry of your molecule has not been determined correctly
or in case you have a reason to use a different symmetry number we print 
out the resulting rotational entropy values for sn=1,12 :
 --------------------------------------------------------
|  sn= 1 | S(rot)=       0.70771626 Eh    444.10 kcal/mol|
|  sn= 2 | S(rot)=       0.68576568 Eh    430.32 kcal/mol|
|  sn= 3 | S(rot)=       0.67292542 Eh    422.27 kcal/mol|
|  sn= 4 | S(rot)=       0.66381511 Eh    416.55 kcal/mol|
|  sn= 5 | S(rot)=       0.65674860 Eh    412.12 kcal/mol|
|  sn= 6 | S(rot)=       0.65097485 Eh    408.49 kcal/mol|
|  sn= 7 | S(rot)=       0.64609320 Eh    405.43 kcal/mol|
|  sn= 8 | S(rot)=       0.64186453 Eh    402.78 kcal/mol|
|  sn= 9 | S(rot)=       0.63813458 Eh    400.43 kcal/mol|
|  sn=10 | S(rot)=       0.63479803 Eh    398.34 kcal/mol|
|  sn=11 | S(rot)=       0.63177975 Eh    396.45 kcal/mol|
|  sn=12 | S(rot)=       0.62902427 Eh    394.72 kcal/mol|
 --------------------------------------------------------


-------------------
GIBBS FREE ENERGY
-------------------

The Gibbs free energy is G = H - T*S

Total enthalpy                    ...   -914.94922078 Eh 
Total entropy correction          ...     -9.77865380 Eh  -6136.18 kcal/mol
-----------------------------------------------------------------------
Final Gibbs free energy         ...   -924.72787458 Eh

For completeness - the Gibbs free energy minus the electronic energy
G-E(el)                           ...     -7.01563820 Eh  -4402.37 kcal/mol


Timings for individual modules:

Sum of individual times         ...    28157.919 sec (= 469.299 min)
GTO integral calculation        ...       30.945 sec (=   0.516 min)   0.1 %
SCF iterations                  ...     5891.345 sec (=  98.189 min)  20.9 %
SCF Gradient evaluation         ...     1321.780 sec (=  22.030 min)   4.7 %
Geometry relaxation             ...        2.671 sec (=   0.045 min)   0.0 %
Analytical frequency calculation...    20911.178 sec (= 348.520 min)  74.3 %
                             ****ORCA TERMINATED NORMALLY****
TOTAL RUN TIME: 0 days 7 hours 49 minutes 27 seconds 141 msec
