
                                 *****************
                                 * O   R   C   A *
                                 *****************

                                            #,                                       
                                            ###                                      
                                            ####                                     
                                            #####                                    
                                            ######                                   
                                           ########,                                 
                                     ,,################,,,,,                         
                               ,,#################################,,                 
                          ,,##########################################,,             
                       ,#########################################, ''#####,          
                    ,#############################################,,   '####,        
                  ,##################################################,,,,####,       
                ,###########''''           ''''###############################       
              ,#####''   ,,,,##########,,,,          '''####'''          '####       
            ,##' ,,,,###########################,,,                        '##       
           ' ,,###''''                  '''############,,,                           
         ,,##''                                '''############,,,,        ,,,,,,###''
      ,#''                                            '''#######################'''  
     '                                                          ''''####''''         
             ,#######,   #######,   ,#######,      ##                                
            ,#'     '#,  ##    ##  ,#'     '#,    #''#        ######   ,####,        
            ##       ##  ##   ,#'  ##            #'  '#       #        #'  '#        
            ##       ##  #######   ##           ,######,      #####,   #    #        
            '#,     ,#'  ##    ##  '#,     ,#' ,#      #,         ##   #,  ,#        
             '#######'   ##     ##  '#######'  #'      '#     #####' # '####'        



                  #######################################################
                  #                        -***-                        #
                  #          Department of theory and spectroscopy      #
                  #    Directorship and core code : Frank Neese         #
                  #        Max Planck Institute fuer Kohlenforschung    #
                  #                Kaiser Wilhelm Platz 1               #
                  #                 D-45470 Muelheim/Ruhr               #
                  #                      Germany                        #
                  #                                                     #
                  #                  All rights reserved                #
                  #                        -***-                        #
                  #######################################################



                         Program Version 5.0.4 -  RELEASE  -

 With contributions from (in alphabetic order):
   Daniel Aravena         : Magnetic Suceptibility
   Michael Atanasov       : Ab Initio Ligand Field Theory (pilot matlab implementation)
   Alexander A. Auer      : GIAO ZORA, VPT2 properties, NMR spectrum
   Ute Becker             : Parallelization
   Giovanni Bistoni       : ED, misc. LED, open-shell LED, HFLD
   Martin Brehm           : Molecular dynamics
   Dmytro Bykov           : SCF Hessian
   Vijay G. Chilkuri      : MRCI spin determinant printing, contributions to CSF-ICE
   Dipayan Datta          : RHF DLPNO-CCSD density
   Achintya Kumar Dutta   : EOM-CC, STEOM-CC
   Dmitry Ganyushin       : Spin-Orbit,Spin-Spin,Magnetic field MRCI
   Miquel Garcia          : C-PCM and meta-GGA Hessian, CC/C-PCM, Gaussian charge scheme
   Yang Guo               : DLPNO-NEVPT2, F12-NEVPT2, CIM, IAO-localization
   Andreas Hansen         : Spin unrestricted coupled pair/coupled cluster methods
   Benjamin Helmich-Paris : MC-RPA, TRAH-SCF, COSX integrals
   Lee Huntington         : MR-EOM, pCC
   Robert Izsak           : Overlap fitted RIJCOSX, COSX-SCS-MP3, EOM
   Marcus Kettner         : VPT2
   Christian Kollmar      : KDIIS, OOCD, Brueckner-CCSD(T), CCSD density, CASPT2, CASPT2-K
   Simone Kossmann        : Meta GGA functionals, TD-DFT gradient, OOMP2, MP2 Hessian
   Martin Krupicka        : Initial AUTO-CI
   Lucas Lang             : DCDCAS
   Marvin Lechner         : AUTO-CI (C++ implementation), FIC-MRCC
   Dagmar Lenk            : GEPOL surface, SMD
   Dimitrios Liakos       : Extrapolation schemes; Compound Job, initial MDCI parallelization
   Dimitrios Manganas     : Further ROCIS development; embedding schemes
   Dimitrios Pantazis     : SARC Basis sets
   Anastasios Papadopoulos: AUTO-CI, single reference methods and gradients
   Taras Petrenko         : DFT Hessian,TD-DFT gradient, ASA, ECA, R-Raman, ABS, FL, XAS/XES, NRVS
   Peter Pinski           : DLPNO-MP2, DLPNO-MP2 Gradient
   Christoph Reimann      : Effective Core Potentials
   Marius Retegan         : Local ZFS, SOC
   Christoph Riplinger    : Optimizer, TS searches, QM/MM, DLPNO-CCSD(T), (RO)-DLPNO pert. Triples
   Tobias Risthaus        : Range-separated hybrids, TD-DFT gradient, RPA, STAB
   Michael Roemelt        : Original ROCIS implementation
   Masaaki Saitow         : Open-shell DLPNO-CCSD energy and density
   Barbara Sandhoefer     : DKH picture change effects
   Avijit Sen             : IP-ROCIS
   Kantharuban Sivalingam : CASSCF convergence, NEVPT2, FIC-MRCI
   Bernardo de Souza      : ESD, SOC TD-DFT
   Georgi Stoychev        : AutoAux, RI-MP2 NMR, DLPNO-MP2 response
   Willem Van den Heuvel  : Paramagnetic NMR
   Boris Wezisla          : Elementary symmetry handling
   Frank Wennmohs         : Technical directorship


 We gratefully acknowledge several colleagues who have allowed us to
 interface, adapt or use parts of their codes:
   Stefan Grimme, W. Hujo, H. Kruse, P. Pracht,  : VdW corrections, initial TS optimization,
                  C. Bannwarth, S. Ehlert          DFT functionals, gCP, sTDA/sTD-DF
   Ed Valeev, F. Pavosevic, A. Kumar             : LibInt (2-el integral package), F12 methods
   Garnet Chan, S. Sharma, J. Yang, R. Olivares  : DMRG
   Ulf Ekstrom                                   : XCFun DFT Library
   Mihaly Kallay                                 : mrcc  (arbitrary order and MRCC methods)
   Jiri Pittner, Ondrej Demel                    : Mk-CCSD
   Frank Weinhold                                : gennbo (NPA and NBO analysis)
   Christopher J. Cramer and Donald G. Truhlar   : smd solvation model
   Lars Goerigk                                  : TD-DFT with DH, B97 family of functionals
   V. Asgeirsson, H. Jonsson                     : NEB implementation
   FAccTs GmbH                                   : IRC, NEB, NEB-TS, DLPNO-Multilevel, CI-OPT
                                                   MM, QMMM, 2- and 3-layer-ONIOM, Crystal-QMMM,
                                                   LR-CPCM, SF, NACMEs, symmetry and pop. for TD-DFT,
                                                   nearIR, NL-DFT gradient (VV10), updates on ESD,
                                                   ML-optimized integration grids
   S Lehtola, MJT Oliveira, MAL Marques          : LibXC Library
   Liviu Ungur et al                             : ANISO software


 Your calculation uses the libint2 library for the computation of 2-el integrals
 For citations please refer to: http://libint.valeyev.net

 Your ORCA version has been built with support for libXC version: 5.1.0
 For citations please refer to: https://tddft.org/programs/libxc/

 This ORCA versions uses:
   CBLAS   interface :  Fast vector & matrix operations
   LAPACKE interface :  Fast linear algebra routines
   Shared memory     :  Shared parallel matrices


XCFun DFT library Copyright 2009-2010 Ulf Ekstrom and contributors.
See http://admol.org/xcfun for more information.
This is free software; see the source code for copying conditions.
There is ABSOLUTELY NO WARRANTY; not even for MERCHANTABILITY or FITNESS FOR A PARTICULAR PURPOSE.
For details see the documentation.
Scientific users of this library should cite U. Ekstrom, L. Visscher, R. Bast, A. J. Thorvaldsen and K. Ruud;
J.Chem.Theor.Comp. 2010, DOI: 10.1021/ct100117s
XCFun Version 0.99 

================================================================================

----- Orbital basis set information -----
Your calculation utilizes the basis: def2-TZVP
   F. Weigend and R. Ahlrichs, Phys. Chem. Chem. Phys. 7, 3297 (2005).

----- AuxJ basis set information -----
Your calculation utilizes the auxiliary basis: def2/J
   F. Weigend, Phys. Chem. Chem. Phys. 8, 1057 (2006).

================================================================================
                                        WARNINGS
                       Please study these warnings very carefully!
================================================================================


WARNING: Geometry Optimization
  ===> : Switching off AutoStart
         For restart on a previous wavefunction, please use MOREAD

WARNING: Minnesota functionals are quite sensitive to the integration grid.
         see SE Wheeler, KN Houk, JCTC 2010, 6, 395,
             N Mardirossian, M Head-Gordon, JCTC 2016, 12, 4303.
         DEFGRID3 seems to be a minimum grid for reliable results with these functionals!
  ===> : Please increase the integration grid!


INFO   : the flag for use of the SHARK integral package has been found!

================================================================================
                                       INPUT FILE
================================================================================
NAME = five_six_two_one_ten_three_loss.inp
|  1> !M062x def2-tzvp opt freq tightscf
|  2> 
|  3> %freq
|  4> Temp 298.15,10,20,50,100,6000,8000,10000
|  5> end
|  6> 
|  7> %maxcore 2000
|  8> %pal
|  9> nprocs 8
| 10> end
| 11> 
| 12> 
| 13> %geom
| 14>   maxiter 2000
| 15>   end
| 16> 
| 17> * xyz 0 1
| 18>   C   2.46362427987247     -2.85071308273857     -0.00000218907091
| 19>   C   1.27719400513090     -3.52585311672403     -0.00003902795947
| 20>   C   0.05064934326115     -2.82613554872827     -0.00011828018749
| 21>   C   -1.19925193688694     -3.46606389677068     -0.00015928151260
| 22>   C   -2.39885271805658     -2.87183824187673     -0.00023283554738
| 23>   C   -2.43518053153382     -1.44080024452875     -0.00027277196623
| 24>   C   -3.66777674509120     -0.75191121775761     -0.00034379554662
| 25>   C   -3.71279324924276      0.61270000430768     -0.00038290810371
| 26>   C   -2.51870888891228      1.35470401292599     -0.00035207453727
| 27>   C   -2.33852946574720      2.75004532075493     -0.00038523866368
| 28>   C   -1.29227857579710      3.37936032270345     -0.00036005870682
| 29>   C   0.02296635156368      2.87874227377718     -0.00029143038758
| 30>   C   1.23211767469076      3.59211777508479     -0.00026457178571
| 31>   C   2.42594730830480      2.92563510630820     -0.00019121984698
| 32>   C   2.44893445959464      1.52227723319545     -0.00014614397662
| 33>   C   3.55845924150033      0.65762020353451     -0.00006795876215
| 34>   C   3.57066637986837     -0.56331157183495     -0.00002324805222
| 35>   C   2.47403114247392     -1.44414615823703     -0.00004617494814
| 36>   C   1.25557023434205     -0.69183165762109     -0.00012491861115
| 37>   C   1.23800989899349      0.75081893774134     -0.00017659337158
| 38>   C   -0.00359548669936      1.44369816359284     -0.00024809051538
| 39>   C   -1.24385874208543      0.70472511229996     -0.00028011039122
| 40>   C   -1.22033926149096     -0.71624674943317     -0.00023589301594
| 41>   C   0.03056944314590     -1.40895937212992     -0.00016349124726
| 42>   H   3.40592714860256     -3.38099880595279      0.00006084796734
| 43>   H   1.25543248807529     -4.60779790743838     -0.00000593698860
| 44>   H   -3.32874432396662     -3.42840544994019     -0.00026138694326
| 45>   H   -4.58380467774224     -1.32989113444890     -0.00036599782084
| 46>   H   -4.65611295060898      1.14148914368134     -0.00043697075864
| 47>   H   1.19941226127863      4.67287271493635     -0.00030009286005
| 48> **                         ****END OF INPUT****
================================================================================

                       *****************************
                       * Geometry Optimization Run *
                       *****************************

Geometry optimization settings:
Update method            Update   .... BFGS
Choice of coordinates    CoordSys .... Z-matrix Internals
Initial Hessian          InHess   .... Almoef's Model

Convergence Tolerances:
Energy Change            TolE     ....  5.0000e-06 Eh
Max. Gradient            TolMAXG  ....  3.0000e-04 Eh/bohr
RMS Gradient             TolRMSG  ....  1.0000e-04 Eh/bohr
Max. Displacement        TolMAXD  ....  4.0000e-03 bohr
RMS Displacement         TolRMSD  ....  2.0000e-03 bohr
Strict Convergence                ....  False
------------------------------------------------------------------------------
                        ORCA OPTIMIZATION COORDINATE SETUP
------------------------------------------------------------------------------

The optimization will be done in new redundant internal coordinates
Making redundant internal coordinates   ...  (new redundants) done
Evaluating the initial hessian          ...  (Almloef) done
Evaluating the coordinates              ...  done
Calculating the B-matrix                .... done
Calculating the G-matrix                .... done
Diagonalizing the G-matrix              .... done
The first mode is                       ....  110
The number of degrees of freedom        ....   84

    -----------------------------------------------------------------
                    Redundant Internal Coordinates


    -----------------------------------------------------------------
         Definition                    Initial Value    Approx d2E/dq
    -----------------------------------------------------------------
      1. B(C   1,C   0)                  1.3651         0.684706   
      2. B(C   2,C   1)                  1.4121         0.576083   
      3. B(C   3,C   2)                  1.4042         0.593052   
      4. B(C   4,C   3)                  1.3387         0.754341   
      5. B(C   5,C   4)                  1.4315         0.536450   
      6. B(C   6,C   5)                  1.4120         0.576199   
      7. B(C   7,C   6)                  1.3654         0.684007   
      8. B(C   8,C   7)                  1.4058         0.589461   
      9. B(C   9,C   8)                  1.4069         0.587129   
     10. B(C  10,C   9)                  1.2209         1.162716   
     11. B(C  11,C  10)                  1.4073         0.586328   
     12. B(C  12,C  11)                  1.4039         0.593680   
     13. B(C  13,C  12)                  1.3673         0.679207   
     14. B(C  14,C  13)                  1.4035         0.594465   
     15. B(C  15,C  14)                  1.4067         0.587716   
     16. B(C  16,C  15)                  1.2210         1.162462   
     17. B(C  17,C  16)                  1.4066         0.587868   
     18. B(C  17,C   0)                  1.4066         0.587822   
     19. B(C  18,C  17)                  1.4320         0.535464   
     20. B(C  19,C  18)                  1.4428         0.514716   
     21. B(C  19,C  14)                  1.4358         0.528065   
     22. B(C  20,C  19)                  1.4219         0.555801   
     23. B(C  20,C  11)                  1.4353         0.529031   
     24. B(C  21,C  20)                  1.4437         0.512894   
     25. B(C  21,C   8)                  1.4310         0.537466   
     26. B(C  22,C  21)                  1.4212         0.557204   
     27. B(C  22,C   5)                  1.4145         0.571014   
     28. B(C  23,C  22)                  1.4299         0.539604   
     29. B(C  23,C  18)                  1.4195         0.560685   
     30. B(C  23,C   2)                  1.4173         0.565137   
     31. B(H  24,C   0)                  1.0813         0.371840   
     32. B(H  25,C   1)                  1.0822         0.370617   
     33. B(H  26,C   4)                  1.0837         0.368494   
     34. B(H  27,C   6)                  1.0831         0.369305   
     35. B(H  28,C   7)                  1.0814         0.371631   
     36. B(H  29,C  12)                  1.0812         0.371864   
     37. A(C   1,C   0,C  17)          120.0660         0.437675   
     38. A(C  17,C   0,H  24)          118.9449         0.351645   
     39. A(C   1,C   0,H  24)          120.9890         0.360873   
     40. A(C   2,C   1,H  25)          118.5516         0.350254   
     41. A(C   0,C   1,C   2)          120.6541         0.436087   
     42. A(C   0,C   1,H  25)          120.7944         0.360670   
     43. A(C   3,C   2,C  23)          116.2999         0.423524   
     44. A(C   1,C   2,C   3)          123.1845         0.424979   
     45. A(C   1,C   2,C  23)          120.5156         0.421333   
     46. A(C   2,C   3,C   4)          126.5367         0.446119   
     47. A(C   5,C   4,H  26)          119.4476         0.345739   
     48. A(C   3,C   4,C   5)          117.8058         0.438102   
     49. A(C   3,C   4,H  26)          122.7466         0.366330   
     50. A(C   4,C   5,C  22)          119.3584         0.416781   
     51. A(C   6,C   5,C  22)          119.9869         0.422127   
     52. A(C   4,C   5,C   6)          120.6547         0.417452   
     53. A(C   5,C   6,C   7)          121.0899         0.436023   
     54. A(C   7,C   6,H  27)          120.3610         0.360389   
     55. A(C   5,C   6,H  27)          118.5491         0.350056   
     56. A(C   6,C   7,C   8)          119.9674         0.437815   
     57. A(C   8,C   7,H  28)          118.8699         0.351777   
     58. A(C   6,C   7,H  28)          121.1627         0.360775   
     59. A(C   9,C   8,C  21)          109.6568         0.418993   
     60. A(C   7,C   8,C   9)          129.2147         0.425963   
     61. A(C   7,C   8,C  21)          121.1285         0.419290   
     62. A(C   8,C   9,C  10)          128.3846         0.481967   
     63. A(C   9,C  10,C  11)          128.1351         0.481846   
     64. A(C  12,C  11,C  20)          121.6002         0.418641   
     65. A(C  10,C  11,C  20)          109.7778         0.417713   
     66. A(C  10,C  11,C  12)          128.6220         0.426403   
     67. A(C  13,C  12,H  29)          120.9068         0.360381   
     68. A(C  11,C  12,H  29)          118.8064         0.352239   
     69. A(C  11,C  12,C  13)          120.2868         0.437822   
     70. A(C  12,C  13,C  14)          120.1119         0.437926   
     71. A(C  13,C  14,C  15)          128.8679         0.426685   
     72. A(C  15,C  14,C  19)          109.5701         0.417752   
     73. A(C  13,C  14,C  19)          121.5621         0.418603   
     74. A(C  14,C  15,C  16)          128.5023         0.482036   
     75. A(C  15,C  16,C  17)          128.1991         0.482060   
     76. A(C  16,C  17,C  18)          109.5356         0.418809   
     77. A(C   0,C  17,C  18)          121.2685         0.418803   
     78. A(C   0,C  17,C  16)          129.1959         0.425847   
     79. A(C  17,C  18,C  19)          122.3898         0.409037   
     80. A(C  19,C  18,C  23)          119.6477         0.412388   
     81. A(C  17,C  18,C  23)          117.9624         0.415293   
     82. A(C  18,C  19,C  20)          119.8611         0.411748   
     83. A(C  14,C  19,C  20)          118.3358         0.413624   
     84. A(C  14,C  19,C  18)          121.8031         0.408030   
     85. A(C  11,C  20,C  19)          118.1034         0.413758   
     86. A(C  19,C  20,C  21)          120.0489         0.411489   
     87. A(C  11,C  20,C  21)          121.8477         0.407906   
     88. A(C  20,C  21,C  22)          119.8391         0.411673   
     89. A(C   8,C  21,C  22)          117.9629         0.415109   
     90. A(C   8,C  21,C  20)          122.1981         0.409050   
     91. A(C  21,C  22,C  23)          119.9245         0.415402   
     92. A(C   5,C  22,C  23)          120.2111         0.417216   
     93. A(C   5,C  22,C  21)          119.8644         0.419609   
     94. A(C  18,C  23,C  22)          120.6786         0.415863   
     95. A(C   2,C  23,C  22)          119.7880         0.416448   
     96. A(C   2,C  23,C  18)          119.5334         0.419301   
     97. D(C   2,C   1,C   0,H  24)    179.9999         0.032899   
     98. D(H  25,C   1,C   0,H  24)     -0.0000         0.032899   
     99. D(C   2,C   1,C   0,C  17)     -0.0001         0.032899   
    100. D(H  25,C   1,C   0,C  17)    180.0000         0.032899   
    101. D(C   3,C   2,C   1,C   0)    180.0000         0.022787   
    102. D(C  23,C   2,C   1,C   0)      0.0001         0.022787   
    103. D(C   3,C   2,C   1,H  25)     -0.0001         0.022787   
    104. D(C  23,C   2,C   1,H  25)    180.0000         0.022787   
    105. D(C   4,C   3,C   2,C  23)     -0.0002         0.021974   
    106. D(C   4,C   3,C   2,C   1)    179.9999         0.021974   
    107. D(C   5,C   4,C   3,C   2)     -0.0001         0.036764   
    108. D(H  26,C   4,C   3,C   2)    180.0000         0.036764   
    109. D(C  22,C   5,C   4,C   3)      0.0001         0.019656   
    110. D(C  22,C   5,C   4,H  26)   -180.0000         0.019656   
    111. D(C   6,C   5,C   4,H  26)      0.0002         0.019656   
    112. D(C   6,C   5,C   4,C   3)   -179.9997         0.019656   
    113. D(H  27,C   6,C   5,C  22)   -179.9997         0.022796   
    114. D(H  27,C   6,C   5,C   4)      0.0001         0.022796   
    115. D(C   7,C   6,C   5,C   4)   -180.0000         0.022796   
    116. D(C   7,C   6,C   5,C  22)      0.0002         0.022796   
    117. D(H  28,C   7,C   6,H  27)     -0.0000         0.032827   
    118. D(H  28,C   7,C   6,C   5)   -180.0000         0.032827   
    119. D(C   8,C   7,C   6,H  27)    179.9999         0.032827   
    120. D(C   8,C   7,C   6,C   5)     -0.0000         0.032827   
    121. D(C  21,C   8,C   7,H  28)    180.0000         0.023909   
    122. D(C  21,C   8,C   7,C   6)      0.0000         0.023909   
    123. D(C   9,C   8,C   7,H  28)     -0.0002         0.023909   
    124. D(C   9,C   8,C   7,C   6)    179.9999         0.023909   
    125. D(C  10,C   9,C   8,C  21)     -0.0000         0.021519   
    126. D(C  10,C   9,C   8,C   7)   -179.9999         0.021519   
    127. D(C  11,C  10,C   9,C   8)      0.0000         0.086136   
    128. D(C  20,C  11,C  10,C   9)     -0.0001         0.021458   
    129. D(C  12,C  11,C  10,C   9)    179.9999         0.021458   
    130. D(H  29,C  12,C  11,C  20)    180.0000         0.024270   
    131. D(H  29,C  12,C  11,C  10)     -0.0001         0.024270   
    132. D(C  13,C  12,C  11,C  10)    179.9998         0.024270   
    133. D(C  13,C  12,C  11,C  20)     -0.0002         0.024270   
    134. D(C  14,C  13,C  12,C  11)      0.0002         0.029288   
    135. D(C  14,C  13,C  12,H  29)   -180.0000         0.029288   
    136. D(C  19,C  14,C  13,C  12)      0.0001         0.022084   
    137. D(C  15,C  14,C  13,C  12)   -179.9999         0.022084   
    138. D(C  16,C  15,C  14,C  13)    179.9996         0.021564   
    139. D(C  16,C  15,C  14,C  19)     -0.0003         0.021564   
    140. D(C  17,C  16,C  15,C  14)      0.0004         0.086092   
    141. D(C  18,C  17,C  16,C  15)     -0.0004         0.021575   
    142. D(C   0,C  17,C  16,C  15)    179.9997         0.021575   
    143. D(C  18,C  17,C   0,H  24)   -179.9998         0.023770   
    144. D(C  18,C  17,C   0,C   1)      0.0002         0.023770   
    145. D(C  16,C  17,C   0,H  24)      0.0002         0.023770   
    146. D(C  16,C  17,C   0,C   1)   -179.9998         0.023770   
    147. D(C  23,C  18,C  17,C  16)    179.9998         0.019582   
    148. D(C  23,C  18,C  17,C   0)     -0.0003         0.019582   
    149. D(C  19,C  18,C  17,C  16)      0.0003         0.019582   
    150. D(C  19,C  18,C  17,C   0)   -179.9998         0.019582   
    151. D(C  20,C  19,C  18,C  23)      0.0008         0.018061   
    152. D(C  20,C  19,C  18,C  17)   -179.9997         0.018061   
    153. D(C  14,C  19,C  18,C  23)   -179.9997         0.018061   
    154. D(C  14,C  19,C  18,C  17)     -0.0003         0.018061   
    155. D(C  20,C  19,C  14,C  15)    179.9997         0.019030   
    156. D(C  20,C  19,C  14,C  13)     -0.0003         0.019030   
    157. D(C  18,C  19,C  14,C  15)      0.0002         0.019030   
    158. D(C  18,C  19,C  14,C  13)   -179.9997         0.019030   
    159. D(C  19,C  20,C  11,C  10)    180.0000         0.019102   
    160. D(C  21,C  20,C  19,C  18)     -0.0005         0.021148   
    161. D(C  21,C  20,C  19,C  14)   -180.0000         0.021148   
    162. D(C  11,C  20,C  19,C  18)    179.9997         0.021148   
    163. D(C  11,C  20,C  19,C  14)      0.0002         0.021148   
    164. D(C  21,C  20,C  11,C  12)   -179.9998         0.019102   
    165. D(C  21,C  20,C  11,C  10)      0.0002         0.019102   
    166. D(C  19,C  20,C  11,C  12)     -0.0000         0.019102   
    167. D(C  22,C  21,C  20,C  19)      0.0002         0.017931   
    168. D(C  22,C  21,C  20,C  11)    180.0000         0.017931   
    169. D(C   8,C  21,C  20,C  19)   -180.0000         0.017931   
    170. D(C   8,C  21,C  20,C  11)     -0.0002         0.017931   
    171. D(C  22,C  21,C   8,C   9)    179.9999         0.019733   
    172. D(C  22,C  21,C   8,C   7)     -0.0002         0.019733   
    173. D(C  20,C  21,C   8,C   9)      0.0001         0.019733   
    174. D(C  20,C  21,C   8,C   7)    180.0000         0.019733   
    175. D(C  23,C  22,C  21,C  20)     -0.0002         0.021259   
    176. D(C  23,C  22,C  21,C   8)   -180.0000         0.021259   
    177. D(C   5,C  22,C  21,C  20)   -179.9997         0.021259   
    178. D(C   5,C  22,C  21,C   8)      0.0004         0.021259   
    179. D(C  23,C  22,C   5,C   6)    180.0000         0.022370   
    180. D(C  23,C  22,C   5,C   4)      0.0002         0.022370   
    181. D(C  21,C  22,C   5,C   6)     -0.0004         0.022370   
    182. D(C  21,C  22,C   5,C   4)    179.9998         0.022370   
    183. D(C  18,C  23,C  22,C  21)      0.0005         0.019895   
    184. D(C  18,C  23,C  22,C   5)   -180.0000         0.019895   
    185. D(C   2,C  23,C  22,C  21)    179.9999         0.019895   
    186. D(C   2,C  23,C  22,C   5)     -0.0005         0.019895   
    187. D(C  22,C  23,C  18,C  19)     -0.0008         0.021536   
    188. D(C  22,C  23,C  18,C  17)    179.9997         0.021536   
    189. D(C   2,C  23,C  18,C  19)    179.9997         0.021536   
    190. D(C   2,C  23,C  18,C  17)      0.0002         0.021536   
    191. D(C  22,C  23,C   2,C   3)      0.0005         0.021893   
    192. D(C  22,C  23,C   2,C   1)   -179.9996         0.021893   
    193. D(C  18,C  23,C   2,C   3)    179.9999         0.021893   
    194. D(C  18,C  23,C   2,C   1)     -0.0002         0.021893   
    -----------------------------------------------------------------

Number of atoms                         .... 30
Number of degrees of freedom            .... 194

         *************************************************************
         *                GEOMETRY OPTIMIZATION CYCLE   1            *
         *************************************************************
---------------------------------
CARTESIAN COORDINATES (ANGSTROEM)
---------------------------------
  C      2.463624   -2.850713   -0.000002
  C      1.277194   -3.525853   -0.000039
  C      0.050649   -2.826136   -0.000118
  C     -1.199252   -3.466064   -0.000159
  C     -2.398853   -2.871838   -0.000233
  C     -2.435181   -1.440800   -0.000273
  C     -3.667777   -0.751911   -0.000344
  C     -3.712793    0.612700   -0.000383
  C     -2.518709    1.354704   -0.000352
  C     -2.338529    2.750045   -0.000385
  C     -1.292279    3.379360   -0.000360
  C      0.022966    2.878742   -0.000291
  C      1.232118    3.592118   -0.000265
  C      2.425947    2.925635   -0.000191
  C      2.448934    1.522277   -0.000146
  C      3.558459    0.657620   -0.000068
  C      3.570666   -0.563312   -0.000023
  C      2.474031   -1.444146   -0.000046
  C      1.255570   -0.691832   -0.000125
  C      1.238010    0.750819   -0.000177
  C     -0.003595    1.443698   -0.000248
  C     -1.243859    0.704725   -0.000280
  C     -1.220339   -0.716247   -0.000236
  C      0.030569   -1.408959   -0.000163
  H      3.405927   -3.380999    0.000061
  H      1.255432   -4.607798   -0.000006
  H     -3.328744   -3.428405   -0.000261
  H     -4.583805   -1.329891   -0.000366
  H     -4.656113    1.141489   -0.000437
  H      1.199412    4.672873   -0.000300

----------------------------
CARTESIAN COORDINATES (A.U.)
----------------------------
  NO LB      ZA    FRAG     MASS         X           Y           Z
   0 C     6.0000    0    12.011    4.655575   -5.387067   -0.000004
   1 C     6.0000    0    12.011    2.413547   -6.662897   -0.000074
   2 C     6.0000    0    12.011    0.095713   -5.340622   -0.000224
   3 C     6.0000    0    12.011   -2.266258   -6.549912   -0.000301
   4 C     6.0000    0    12.011   -4.533175   -5.426988   -0.000440
   5 C     6.0000    0    12.011   -4.601824   -2.722718   -0.000515
   6 C     6.0000    0    12.011   -6.931094   -1.420906   -0.000650
   7 C     6.0000    0    12.011   -7.016162    1.157835   -0.000724
   8 C     6.0000    0    12.011   -4.759670    2.560020   -0.000665
   9 C     6.0000    0    12.011   -4.419180    5.196833   -0.000728
  10 C     6.0000    0    12.011   -2.442053    6.386066   -0.000680
  11 C     6.0000    0    12.011    0.043400    5.440035   -0.000551
  12 C     6.0000    0    12.011    2.328365    6.788119   -0.000500
  13 C     6.0000    0    12.011    4.584376    5.528649   -0.000361
  14 C     6.0000    0    12.011    4.627815    2.876687   -0.000276
  15 C     6.0000    0    12.011    6.724513    1.242722   -0.000128
  16 C     6.0000    0    12.011    6.747582   -1.064505   -0.000044
  17 C     6.0000    0    12.011    4.675241   -2.729041   -0.000087
  18 C     6.0000    0    12.011    2.372684   -1.307372   -0.000236
  19 C     6.0000    0    12.011    2.339500    1.418842   -0.000334
  20 C     6.0000    0    12.011   -0.006794    2.728194   -0.000469
  21 C     6.0000    0    12.011   -2.350552    1.331737   -0.000529
  22 C     6.0000    0    12.011   -2.306107   -1.353510   -0.000446
  23 C     6.0000    0    12.011    0.057768   -2.662547   -0.000309
  24 H     1.0000    0     1.008    6.436270   -6.389162    0.000115
  25 H     1.0000    0     1.008    2.372424   -8.707476   -0.000011
  26 H     1.0000    0     1.008   -6.290415   -6.478747   -0.000494
  27 H     1.0000    0     1.008   -8.662135   -2.513130   -0.000692
  28 H     1.0000    0     1.008   -8.798778    2.157102   -0.000826
  29 H     1.0000    0     1.008    2.266561    8.830450   -0.000567

--------------------------------
INTERNAL COORDINATES (ANGSTROEM)
--------------------------------
 C      0   0   0     0.000000000000     0.00000000     0.00000000
 C      1   0   0     1.365075405855     0.00000000     0.00000000
 C      2   1   0     1.412096487073   120.65405474     0.00000000
 C      3   2   1     1.404194253807   123.18448403   179.99999548
 C      4   3   2     1.338710636593   126.53667483   179.99993029
 C      5   4   3     1.431499026015   117.80582306     0.00000000
 C      6   5   4     1.412041614800   120.65468373   180.00031337
 C      7   6   5     1.365353534643   121.08992386   180.00002878
 C      8   7   6     1.405847576853   119.96739963     0.00000000
 C      9   8   7     1.406926434099   129.21466480   179.99985058
 C     10   9   8     1.220933371250   128.38455854   180.00014667
 C     11  10   9     1.407297997785   128.13510071     0.00000000
 C     12  11  10     1.403905811943   128.62204290   179.99986207
 C     13  12  11     1.367270400197   120.28679399   179.99978107
 C     14  13  12     1.403546127202   120.11186410     0.00000000
 C     15  14  13     1.406654551309   128.86785381   180.00012098
 C     16  15  14     1.220992799460   128.50226321   179.99964904
 C     17  16  15     1.406583951644   128.19913909     0.00000000
 C     18  17  16     1.432000034456   109.53559171     0.00000000
 C     15  14  13     1.435787656312   121.56205315     0.00000000
 C     20  15  14     1.421852861765   118.33577083     0.00000000
 C      9   8   7     1.430984092610   121.12854471     0.00000000
 C      6   5   4     1.414502414284   119.35844359     0.00000000
 C      3   2   1     1.417318425743   120.51560303     0.00000000
 H      1   2   3     1.081266687102   120.98903654   179.99985380
 H      2   1   3     1.082163617423   120.79436281   180.00013951
 H      5   4   3     1.083727574923   122.74660524   179.99997955
 H      7   6   5     1.083128781811   118.54907638     0.00000000
 H      8   7   6     1.081420369619   121.16274943   180.00002077
 H     13  12  11     1.081249686863   118.80643386     0.00000000

---------------------------
INTERNAL COORDINATES (A.U.)
---------------------------
 C      0   0   0     0.000000000000     0.00000000     0.00000000
 C      1   0   0     2.579618669217     0.00000000     0.00000000
 C      2   1   0     2.668475635240   120.65405474     0.00000000
 C      3   2   1     2.653542578522   123.18448403   179.99999548
 C      4   3   2     2.529796475728   126.53667483   179.99993029
 C      5   4   3     2.705141120143   117.80582306     0.00000000
 C      6   5   4     2.668371941671   120.65468373   180.00031337
 C      7   6   5     2.580144256457   121.08992386   180.00002878
 C      8   7   6     2.656666906288   119.96739963     0.00000000
 C      9   8   7     2.658705651021   129.21466480   179.99985058
 C     10   9   8     2.307229699428   128.38455854   180.00014667
 C     11  10   9     2.659407804629   128.13510071     0.00000000
 C     12  11  10     2.652997502393   128.62204290   179.99986207
 C     13  12  11     2.583766607389   120.28679399   179.99978107
 C     14  13  12     2.652317796738   120.11186410     0.00000000
 C     15  14  13     2.658191867008   128.86785381   180.00012098
 C     16  15  14     2.307342002469   128.50226321   179.99964904
 C     17  16  15     2.658058452976   128.19913909     0.00000000
 C     18  17  16     2.706087888888   109.53559171     0.00000000
 C     15  14  13     2.713245456895   121.56205315     0.00000000
 C     20  15  14     2.686912511468   118.33577083     0.00000000
 C      9   8   7     2.704168037030   121.12854471     0.00000000
 C      6   5   4     2.673022178767   119.35844359     0.00000000
 C      3   2   1     2.678343669215   120.51560303     0.00000000
 H      1   2   3     2.043297916354   120.98903654   179.99985380
 H      2   1   3     2.044992869023   120.79436281   180.00013951
 H      5   4   3     2.047948320383   122.74660524   179.99997955
 H      7   6   5     2.046816765391   118.54907638     0.00000000
 H      8   7   6     2.043588334225   121.16274943   180.00002077
 H     13  12  11     2.043265790560   118.80643386     0.00000000

---------------------
BASIS SET INFORMATION
---------------------
There are 2 groups of distinct atoms

 Group   1 Type C   : 11s6p2d1f contracted to 5s3p2d1f pattern {62111/411/11/1}
 Group   2 Type H   : 5s1p contracted to 3s1p pattern {311/1}

Atom   0C    basis set group =>   1
Atom   1C    basis set group =>   1
Atom   2C    basis set group =>   1
Atom   3C    basis set group =>   1
Atom   4C    basis set group =>   1
Atom   5C    basis set group =>   1
Atom   6C    basis set group =>   1
Atom   7C    basis set group =>   1
Atom   8C    basis set group =>   1
Atom   9C    basis set group =>   1
Atom  10C    basis set group =>   1
Atom  11C    basis set group =>   1
Atom  12C    basis set group =>   1
Atom  13C    basis set group =>   1
Atom  14C    basis set group =>   1
Atom  15C    basis set group =>   1
Atom  16C    basis set group =>   1
Atom  17C    basis set group =>   1
Atom  18C    basis set group =>   1
Atom  19C    basis set group =>   1
Atom  20C    basis set group =>   1
Atom  21C    basis set group =>   1
Atom  22C    basis set group =>   1
Atom  23C    basis set group =>   1
Atom  24H    basis set group =>   2
Atom  25H    basis set group =>   2
Atom  26H    basis set group =>   2
Atom  27H    basis set group =>   2
Atom  28H    basis set group =>   2
Atom  29H    basis set group =>   2
---------------------------------
AUXILIARY/J BASIS SET INFORMATION
---------------------------------
There are 2 groups of distinct atoms

 Group   1 Type C   : 12s5p4d2f1g contracted to 6s4p3d1f1g pattern {711111/2111/211/2/1}
 Group   2 Type H   : 5s2p1d contracted to 3s1p1d pattern {311/2/1}

Atom   0C    basis set group =>   1
Atom   1C    basis set group =>   1
Atom   2C    basis set group =>   1
Atom   3C    basis set group =>   1
Atom   4C    basis set group =>   1
Atom   5C    basis set group =>   1
Atom   6C    basis set group =>   1
Atom   7C    basis set group =>   1
Atom   8C    basis set group =>   1
Atom   9C    basis set group =>   1
Atom  10C    basis set group =>   1
Atom  11C    basis set group =>   1
Atom  12C    basis set group =>   1
Atom  13C    basis set group =>   1
Atom  14C    basis set group =>   1
Atom  15C    basis set group =>   1
Atom  16C    basis set group =>   1
Atom  17C    basis set group =>   1
Atom  18C    basis set group =>   1
Atom  19C    basis set group =>   1
Atom  20C    basis set group =>   1
Atom  21C    basis set group =>   1
Atom  22C    basis set group =>   1
Atom  23C    basis set group =>   1
Atom  24H    basis set group =>   2
Atom  25H    basis set group =>   2
Atom  26H    basis set group =>   2
Atom  27H    basis set group =>   2
Atom  28H    basis set group =>   2
Atom  29H    basis set group =>   2


           ************************************************************
           *        Program running with 8 parallel MPI-processes     *
           *              working on a common directory               *
           ************************************************************
------------------------------------------------------------------------------
                           ORCA GTO INTEGRAL CALCULATION
                           -- RI-GTO INTEGRALS CHOSEN --
------------------------------------------------------------------------------
------------------------------------------------------------------------------
                   ___                                                        
                  /   \      - P O W E R E D   B Y -                         
                 /     \                                                     
                 |  |  |   _    _      __       _____    __    __             
                 |  |  |  | |  | |    /  \     |  _  \  |  |  /  |          
                  \  \/   | |  | |   /    \    | | | |  |  | /  /          
                 / \  \   | |__| |  /  /\  \   | |_| |  |  |/  /          
                |  |  |   |  __  | /  /__\  \  |    /   |      \           
                |  |  |   | |  | | |   __   |  |    \   |  |\   \          
                \     /   | |  | | |  |  |  |  | |\  \  |  | \   \       
                 \___/    |_|  |_| |__|  |__|  |_| \__\ |__|  \__/        
                                                                              
                      - O R C A' S   B I G   F R I E N D -                    
                                      &                                       
                       - I N T E G R A L  F E E D E R -                       
                                                                              
 v1 FN, 2020, v2 2021                                                         
------------------------------------------------------------------------------


Reading SHARK input file five_six_two_one_ten_three_loss.SHARKINP.tmp ... ok
----------------------
SHARK INTEGRAL PACKAGE
----------------------

Number of atoms                             ...     30
Number of basis functions                   ...    780
Number of shells                            ...    288
Maximum angular momentum                    ...      3
Integral batch strategy                     ... SHARK/LIBINT Hybrid
RI-J (if used) integral strategy            ... SPLIT-RIJ (Revised 2003 algorithm where possible)
Printlevel                                  ...      1
Contraction scheme used                     ... SEGMENTED contraction
Coulomb Range Separation                    ... NOT USED
Exchange Range Separation                   ... NOT USED
Finite Nucleus Model                        ... NOT USED
Auxiliary Coulomb fitting basis             ... AVAILABLE
   # of basis functions in Aux-J            ...   1242
   # of shells in Aux-J                     ...    390
   Maximum angular momentum in Aux-J        ...      4
Auxiliary J/K fitting basis                 ... NOT available
Auxiliary Correlation fitting basis         ... NOT available
Auxiliary 'external' fitting basis          ... NOT available
Integral threshold                          ...     2.500000e-11
Primitive cut-off                           ...     2.500000e-12
Primitive pair pre-selection threshold      ...     2.500000e-12

Calculating pre-screening integrals         ... done (  0.1 sec) Dimension = 288
Organizing shell pair data                  ... done (  2.3 sec)
Shell pair information
Total number of shell pairs                 ...     41616
Shell pairs after pre-screening             ...     32542
Total number of primitive shell pairs       ...    133932
Primitive shell pairs kept                  ...     69790
          la=0 lb=0:   6879 shell pairs
          la=1 lb=0:   8827 shell pairs
          la=1 lb=1:   2735 shell pairs
          la=2 lb=0:   5003 shell pairs
          la=2 lb=1:   3178 shell pairs
          la=2 lb=2:    935 shell pairs
          la=3 lb=0:   2340 shell pairs
          la=3 lb=1:   1545 shell pairs
          la=3 lb=2:    874 shell pairs
          la=3 lb=3:    226 shell pairs

Calculating one electron integrals          ... done (  0.1 sec)
Calculating RI/J V-Matrix + Cholesky decomp.... done (  0.1 sec)
Calculating Nuclear repulsion               ... done (  0.0 sec) ENN=   1727.262700782278 Eh

SHARK setup successfully completed in   3.5 seconds

Maximum memory used throughout the entire GTOINT-calculation: 48.8 MB


           ************************************************************
           *        Program running with 8 parallel MPI-processes     *
           *              working on a common directory               *
           ************************************************************
-------------------------------------------------------------------------------
                                 ORCA SCF
-------------------------------------------------------------------------------

------------
SCF SETTINGS
------------
Hamiltonian:
 Density Functional     Method          .... DFT(GTOs)
 Exchange Functional    Exchange        .... M062X
 Correlation Functional Correlation     .... M062X
 Gradients option       PostSCFGGA      .... off
 Hybrid DFT is turned on
   Fraction HF Exchange ScalHFX         ....  0.540000
   Scaling of DF-GGA-X  ScalDFX         ....  0.460000
   Scaling of DF-GGA-C  ScalDFC         ....  1.000000
   Scaling of DF-LDA-C  ScalLDAC        ....  1.000000
   Perturbative correction              ....  0.000000
   Density functional embedding theory  .... OFF
 RI-approximation to the Coulomb term is turned on
   Number of AuxJ basis functions       .... 1242
   RIJ-COSX (HFX calculated with COS-X)).... on


General Settings:
 Integral files         IntName         .... five_six_two_one_ten_three_loss
 Hartree-Fock type      HFTyp           .... RHF
 Total Charge           Charge          ....    0
 Multiplicity           Mult            ....    1
 Number of Electrons    NEL             ....  150
 Basis Dimension        Dim             ....  780
 Nuclear Repulsion      ENuc            ....   1727.2627007823 Eh

Convergence Acceleration:
 DIIS                   CNVDIIS         .... on
   Start iteration      DIISMaxIt       ....    12
   Startup error        DIISStart       ....  0.200000
   # of expansion vecs  DIISMaxEq       ....     5
   Bias factor          DIISBfac        ....   1.050
   Max. coefficient     DIISMaxC        ....  10.000
 Trust-Rad. Augm. Hess. CNVTRAH         .... auto
   Auto Start mean grad. ratio tolernc. ....  1.125000
   Auto Start start iteration           ....    20
   Auto Start num. interpolation iter.  ....    10
   Max. Number of Micro iterations      ....    16
   Max. Number of Macro iterations      .... Maxiter - #DIIS iter
   Number of Davidson start vectors     ....     2
   Converg. threshold I  (grad. norm)   ....   1.000e-05
   Converg. threshold II (energy diff.) ....   1.000e-08
   Grad. Scal. Fac. for Micro threshold ....   0.100
   Minimum threshold for Micro iter.    ....   0.010
   NR start threshold (gradient norm)   ....   0.001
   Initial trust radius                 ....   0.400
   Minimum AH scaling param. (alpha)    ....   1.000
   Maximum AH scaling param. (alpha)    .... 1000.000
   Orbital update algorithm             .... Taylor
   White noise on init. David. guess    .... on
   Maximum white noise                  ....   0.010
   Quad. conv. algorithm                .... NR
 SOSCF                  CNVSOSCF        .... on
   Start iteration      SOSCFMaxIt      ....   150
   Startup grad/error   SOSCFStart      ....  0.003300
 Level Shifting         CNVShift        .... on
   Level shift para.    LevelShift      ....    0.2500
   Turn off err/grad.   ShiftErr        ....    0.0010
 Zerner damping         CNVZerner       .... off
 Static damping         CNVDamp         .... on
   Fraction old density DampFac         ....    0.7000
   Max. Damping (<1)    DampMax         ....    0.9800
   Min. Damping (>=0)   DampMin         ....    0.0000
   Turn off err/grad.   DampErr         ....    0.1000
 Fernandez-Rico         CNVRico         .... off

SCF Procedure:
 Maximum # iterations   MaxIter         ....   125
 SCF integral mode      SCFMode         .... Direct
   Integral package                     .... SHARK and LIBINT hybrid scheme
 Reset frequency        DirectResetFreq ....    20
 Integral Threshold     Thresh          ....  2.500e-11 Eh
 Primitive CutOff       TCut            ....  2.500e-12 Eh

Convergence Tolerance:
 Convergence Check Mode ConvCheckMode   .... Total+1el-Energy
 Convergence forced     ConvForced      .... 0
 Energy Change          TolE            ....  1.000e-08 Eh
 1-El. energy change                    ....  1.000e-05 Eh
 Orbital Gradient       TolG            ....  1.000e-05
 Orbital Rotation angle TolX            ....  1.000e-05
 DIIS Error             TolErr          ....  5.000e-07


Diagonalization of the overlap matrix:
Smallest eigenvalue                        ... 7.594e-07
Time for diagonalization                   ...    0.061 sec
Threshold for overlap eigenvalues          ... 1.000e-08
Number of eigenvalues below threshold      ... 0
Time for construction of square roots      ...    0.110 sec
Total time needed                          ...    0.174 sec

Time for model grid setup =    0.331 sec

------------------------------
INITIAL GUESS: MODEL POTENTIAL
------------------------------
Loading Hartree-Fock densities                     ... done
Calculating cut-offs                               ... done
Initializing the effective Hamiltonian             ... done
Setting up the integral package (SHARK)            ... done
Starting the Coulomb interaction                   ... done (   0.5 sec)
Reading the grid                                   ... done
Mapping shells                                     ... done
Starting the XC term evaluation                    ... done (   0.6 sec)
  promolecular density results
     # of electrons  =    149.982878614
     EX              =   -124.527970826
     EC              =     -5.081193938
     EX+EC           =   -129.609164764
Transforming the Hamiltonian                       ... done (   0.1 sec)
Diagonalizing the Hamiltonian                      ... done (   0.1 sec)
Back transforming the eigenvectors                 ... done (   0.0 sec)
Now organizing SCF variables                       ... done
                      ------------------
                      INITIAL GUESS DONE (   1.7 sec)
                      ------------------
-------------------
DFT GRID GENERATION
-------------------

General Integration Accuracy     IntAcc      ... 4.388
Radial Grid Type                 RadialGrid  ... OptM3 with GC (2021)
Angular Grid (max. ang.)         AngularGrid ... 4 (Lebedev-302)
Angular grid pruning method      GridPruning ... 4 (adaptive)
Weight generation scheme         WeightScheme... Becke
Basis function cutoff            BFCut       ... 1.0000e-11
Integration weight cutoff        WCut        ... 1.0000e-14
Angular grids for H and He will be reduced by one unit
Partially contracted basis set               ... off
Rotationally invariant grid construction     ... off

Total number of grid points                  ...   161638
Total number of batches                      ...     2538
Average number of points per batch           ...       63
Average number of grid points per atom       ...     5388
Time for grid setup =    1.244 sec

--------------------
COSX GRID GENERATION
--------------------

GRIDX 1
-------
General Integration Accuracy     IntAcc      ... 3.816
Radial Grid Type                 RadialGrid  ... OptM3 with GC (2021)
Angular Grid (max. ang.)         AngularGrid ... 1 (Lebedev-50)
Angular grid pruning method      GridPruning ... 4 (adaptive)
Weight generation scheme         WeightScheme... Becke
Basis function cutoff            BFCut       ... 1.0000e-11
Integration weight cutoff        WCut        ... 1.0000e-14
Angular grids for H and He will be reduced by one unit
Partially contracted basis set               ... on
Rotationally invariant grid construction     ... off

Total number of grid points                  ...    20511
Total number of batches                      ...      333
Average number of points per batch           ...       61
Average number of grid points per atom       ...      684
UseSFitting                                  ... on

GRIDX 2
-------
General Integration Accuracy     IntAcc      ... 4.020
Radial Grid Type                 RadialGrid  ... OptM3 with GC (2021)
Angular Grid (max. ang.)         AngularGrid ... 2 (Lebedev-110)
Angular grid pruning method      GridPruning ... 4 (adaptive)
Weight generation scheme         WeightScheme... Becke
Basis function cutoff            BFCut       ... 1.0000e-11
Integration weight cutoff        WCut        ... 1.0000e-14
Angular grids for H and He will be reduced by one unit
Partially contracted basis set               ... on
Rotationally invariant grid construction     ... off

Total number of grid points                  ...    46249
Total number of batches                      ...      737
Average number of points per batch           ...       62
Average number of grid points per atom       ...     1542
UseSFitting                                  ... on

GRIDX 3
-------
General Integration Accuracy     IntAcc      ... 4.338
Radial Grid Type                 RadialGrid  ... OptM3 with GC (2021)
Angular Grid (max. ang.)         AngularGrid ... 3 (Lebedev-194)
Angular grid pruning method      GridPruning ... 4 (adaptive)
Weight generation scheme         WeightScheme... Becke
Basis function cutoff            BFCut       ... 1.0000e-11
Integration weight cutoff        WCut        ... 1.0000e-14
Angular grids for H and He will be reduced by one unit
Partially contracted basis set               ... on
Rotationally invariant grid construction     ... off

Total number of grid points                  ...   102028
Total number of batches                      ...     1609
Average number of points per batch           ...       63
Average number of grid points per atom       ...     3401
UseSFitting                                  ... on

Time for X-Grid setup             =    3.108 sec

--------------
SCF ITERATIONS
--------------
ITER       Energy         Delta-E        Max-DP      RMS-DP      [F,P]     Damp
               ***  Starting incremental Fock matrix formation  ***
  0   -917.1385125319   0.000000000000 0.09313741  0.00145655  0.1657373 0.7000
  1   -917.4226182614  -0.284105729446 0.07585738  0.00122436  0.0836308 0.7000
                               ***Turning on DIIS***
  2   -917.4738811360  -0.051262874655 0.19769661  0.00304002  0.0985968 0.0000
  3   -917.6712033116  -0.197322175565 0.03866684  0.00073786  0.0790622 0.0000
  4   -917.7057525854  -0.034549273777 0.02704486  0.00034490  0.0422377 0.0000
  5   -917.7121003420  -0.006347756681 0.02270938  0.00025085  0.0071337 0.0000
                      *** Initiating the SOSCF procedure ***
                           *** Shutting down DIIS ***
                      *** Re-Reading the Fockian *** 
                      *** Removing any level shift *** 
ITER      Energy       Delta-E        Grad      Rot      Max-DP    RMS-DP
  6   -917.71257019  -0.0004698466  0.001686  0.001686  0.020289  0.000185
               *** Restarting incremental Fock matrix formation ***
  7   -917.71234830   0.0002218912  0.001165  0.005383  0.075748  0.000877
  8   -917.71237831  -0.0000300138  0.003160  0.031451  0.424074  0.003779
  9   -917.71146322   0.0009150908  0.011486  0.024137  0.395595  0.003475
 10   -917.71241594  -0.0009527242  0.000470  0.003331  0.058841  0.000748
 11   -917.71240542   0.0000105287  0.000620  0.002214  0.033374  0.000407
 12   -917.71243017  -0.0000247506  0.000197  0.000589  0.006139  0.000080
 13   -917.71242932   0.0000008482  0.000315  0.000389  0.004201  0.000055
 14   -917.71243079  -0.0000014681  0.000027  0.000080  0.001035  0.000014
 15   -917.71243078   0.0000000045  0.000025  0.000043  0.000568  0.000007
 16   -917.71243083  -0.0000000527  0.000005  0.000032  0.000174  0.000002
 17   -917.71243081   0.0000000204  0.000006  0.000014  0.000138  0.000002
                  ***Gradient check signals convergence***
              ***Rediagonalizing the Fockian in SOSCF/NRSCF***

               *****************************************************
               *                     SUCCESS                       *
               *           SCF CONVERGED AFTER  18 CYCLES          *
               *****************************************************

Old exchange energy                            =    -68.231145687 Eh
New exchange energy                            =    -68.230998540 Eh
Exchange energy change after final integration =      0.000147147 Eh
Total energy after final integration           =   -917.712283664 Eh
Final COS-X integration done in                =    38.679 sec

----------------
TOTAL SCF ENERGY
----------------

Total Energy       :         -917.71228366 Eh          -24972.22080 eV

Components:
Nuclear Repulsion  :         1727.26270078 Eh           47001.20758 eV
Electronic Energy  :        -2644.97498445 Eh          -71973.42839 eV
One Electron Energy:        -4668.22352861 Eh         -127028.82023 eV
Two Electron Energy:         2023.24854417 Eh           55055.39185 eV
Max COSX asymmetry :            0.00000532 Eh               0.00014 eV

Virial components:
Potential Energy   :        -1830.95754471 Eh          -49822.88774 eV
Kinetic Energy     :          913.24526104 Eh           24850.66694 eV
Virial Ratio       :            2.00489137


DFT components:
N(Alpha)           :       75.000135285505 electrons
N(Beta)            :       75.000135285505 electrons
N(Total)           :      150.000270571011 electrons
E(XC)              :      -63.834661161824 Eh       
DFET-embed. en.    :        0.000000000000 Eh       

---------------
SCF CONVERGENCE
---------------

  Last Energy change         ...    2.9676e-09  Tolerance :   1.0000e-08
  Last MAX-Density change    ...    1.4433e-15  Tolerance :   1.0000e-07
  Last RMS-Density change    ...    1.2423e-17  Tolerance :   5.0000e-09
  Last Orbital Gradient      ...    9.3125e-07  Tolerance :   1.0000e-05
  Last Orbital Rotation      ...    1.2440e-05  Tolerance :   1.0000e-05

             **** THE GBW FILE WAS UPDATED (five_six_two_one_ten_three_loss.gbw) ****
             **** DENSITY five_six_two_one_ten_three_loss.scfp WAS UPDATED ****
             **** ENERGY FILE WAS UPDATED (five_six_two_one_ten_three_loss.en.tmp) ****
             **** THE GBW FILE WAS UPDATED (five_six_two_one_ten_three_loss.gbw) ****
             **** DENSITY five_six_two_one_ten_three_loss.scfp WAS UPDATED ****
----------------
ORBITAL ENERGIES
----------------

  NO   OCC          E(Eh)            E(eV) 
   0   2.0000     -10.608485      -288.6715 
   1   2.0000     -10.599904      -288.4380 
   2   2.0000     -10.599473      -288.4263 
   3   2.0000     -10.599328      -288.4224 
   4   2.0000     -10.597552      -288.3740 
   5   2.0000     -10.594325      -288.2862 
   6   2.0000     -10.593319      -288.2589 
   7   2.0000     -10.592165      -288.2275 
   8   2.0000     -10.590260      -288.1756 
   9   2.0000     -10.589820      -288.1637 
  10   2.0000     -10.587509      -288.1008 
  11   2.0000     -10.585167      -288.0370 
  12   2.0000     -10.584788      -288.0267 
  13   2.0000     -10.581236      -287.9301 
  14   2.0000     -10.577180      -287.8197 
  15   2.0000     -10.572141      -287.6826 
  16   2.0000     -10.571287      -287.6593 
  17   2.0000     -10.569929      -287.6224 
  18   2.0000     -10.569020      -287.5976 
  19   2.0000     -10.564565      -287.4764 
  20   2.0000     -10.561506      -287.3932 
  21   2.0000     -10.559002      -287.3251 
  22   2.0000     -10.557661      -287.2886 
  23   2.0000     -10.554336      -287.1981 
  24   2.0000      -1.044648       -28.4263 
  25   2.0000      -1.006416       -27.3860 
  26   2.0000      -1.005195       -27.3528 
  27   2.0000      -0.954900       -25.9841 
  28   2.0000      -0.952451       -25.9175 
  29   2.0000      -0.929687       -25.2981 
  30   2.0000      -0.901574       -24.5331 
  31   2.0000      -0.882130       -24.0040 
  32   2.0000      -0.859870       -23.3982 
  33   2.0000      -0.857584       -23.3360 
  34   2.0000      -0.827533       -22.5183 
  35   2.0000      -0.825300       -22.4576 
  36   2.0000      -0.748755       -20.3747 
  37   2.0000      -0.742164       -20.1953 
  38   2.0000      -0.731366       -19.9015 
  39   2.0000      -0.720855       -19.6154 
  40   2.0000      -0.715454       -19.4685 
  41   2.0000      -0.666493       -18.1362 
  42   2.0000      -0.629891       -17.1402 
  43   2.0000      -0.628419       -17.1001 
  44   2.0000      -0.619034       -16.8448 
  45   2.0000      -0.607537       -16.5319 
  46   2.0000      -0.598580       -16.2882 
  47   2.0000      -0.563403       -15.3310 
  48   2.0000      -0.552490       -15.0340 
  49   2.0000      -0.547323       -14.8934 
  50   2.0000      -0.539084       -14.6692 
  51   2.0000      -0.533326       -14.5125 
  52   2.0000      -0.527449       -14.3526 
  53   2.0000      -0.519115       -14.1258 
  54   2.0000      -0.506086       -13.7713 
  55   2.0000      -0.499179       -13.5833 
  56   2.0000      -0.488801       -13.3010 
  57   2.0000      -0.486894       -13.2490 
  58   2.0000      -0.473251       -12.8778 
  59   2.0000      -0.466552       -12.6955 
  60   2.0000      -0.458746       -12.4831 
  61   2.0000      -0.434326       -11.8186 
  62   2.0000      -0.427868       -11.6429 
  63   2.0000      -0.424823       -11.5600 
  64   2.0000      -0.421956       -11.4820 
  65   2.0000      -0.406018       -11.0483 
  66   2.0000      -0.357868        -9.7381 
  67   2.0000      -0.348531        -9.4840 
  68   2.0000      -0.342389        -9.3169 
  69   2.0000      -0.336858        -9.1664 
  70   2.0000      -0.330759        -9.0004 
  71   2.0000      -0.329639        -8.9699 
  72   2.0000      -0.275480        -7.4962 
  73   2.0000      -0.271969        -7.4006 
  74   2.0000      -0.227345        -6.1864 
  75   0.0000      -0.179042        -4.8720 
  76   0.0000      -0.058186        -1.5833 
  77   0.0000      -0.053546        -1.4571 
  78   0.0000      -0.047854        -1.3022 
  79   0.0000      -0.041448        -1.1279 
  80   0.0000      -0.010538        -0.2868 
  81   0.0000      -0.003518        -0.0957 
  82   0.0000       0.005145         0.1400 
  83   0.0000       0.046212         1.2575 
  84   0.0000       0.073755         2.0070 
  85   0.0000       0.088142         2.3985 
  86   0.0000       0.088733         2.4145 
  87   0.0000       0.100994         2.7482 
  88   0.0000       0.111211         3.0262 
  89   0.0000       0.114187         3.1072 
  90   0.0000       0.118007         3.2111 
  91   0.0000       0.120252         3.2722 
  92   0.0000       0.122992         3.3468 
  93   0.0000       0.130596         3.5537 
  94   0.0000       0.132649         3.6096 
  95   0.0000       0.134935         3.6718 
  96   0.0000       0.168784         4.5928 
  97   0.0000       0.170440         4.6379 
  98   0.0000       0.177241         4.8230 
  99   0.0000       0.179343         4.8802 
 100   0.0000       0.187441         5.1005 
 101   0.0000       0.195764         5.3270 
 102   0.0000       0.197157         5.3649 
 103   0.0000       0.200615         5.4590 
 104   0.0000       0.205261         5.5854 
 105   0.0000       0.206873         5.6293 
 106   0.0000       0.213952         5.8219 
 107   0.0000       0.224856         6.1186 
 108   0.0000       0.226662         6.1678 
 109   0.0000       0.229993         6.2584 
 110   0.0000       0.239545         6.5184 
 111   0.0000       0.240257         6.5377 
 112   0.0000       0.250050         6.8042 
 113   0.0000       0.251899         6.8545 
 114   0.0000       0.254842         6.9346 
 115   0.0000       0.261709         7.1215 
 116   0.0000       0.262810         7.1514 
 117   0.0000       0.269654         7.3377 
 118   0.0000       0.272808         7.4235 
 119   0.0000       0.274684         7.4745 
 120   0.0000       0.274883         7.4799 
 121   0.0000       0.277602         7.5539 
 122   0.0000       0.287307         7.8180 
 123   0.0000       0.289976         7.8906 
 124   0.0000       0.298199         8.1144 
 125   0.0000       0.300496         8.1769 
 126   0.0000       0.307407         8.3650 
 127   0.0000       0.310510         8.4494 
 128   0.0000       0.311638         8.4801 
 129   0.0000       0.313157         8.5214 
 130   0.0000       0.313752         8.5376 
 131   0.0000       0.319409         8.6916 
 132   0.0000       0.326096         8.8735 
 133   0.0000       0.327448         8.9103 
 134   0.0000       0.331618         9.0238 
 135   0.0000       0.345383         9.3984 
 136   0.0000       0.346524         9.4294 
 137   0.0000       0.349981         9.5235 
 138   0.0000       0.356179         9.6921 
 139   0.0000       0.357723         9.7341 
 140   0.0000       0.361833         9.8460 
 141   0.0000       0.368581        10.0296 
 142   0.0000       0.374794        10.1987 
 143   0.0000       0.374854        10.2003 
 144   0.0000       0.376899        10.2559 
 145   0.0000       0.377465        10.2713 
 146   0.0000       0.379625        10.3301 
 147   0.0000       0.385611        10.4930 
 148   0.0000       0.386952        10.5295 
 149   0.0000       0.392449        10.6791 
 150   0.0000       0.394413        10.7325 
 151   0.0000       0.404308        11.0018 
 152   0.0000       0.410258        11.1637 
 153   0.0000       0.417570        11.3626 
 154   0.0000       0.418370        11.3844 
 155   0.0000       0.423036        11.5114 
 156   0.0000       0.429513        11.6876 
 157   0.0000       0.437860        11.9148 
 158   0.0000       0.448059        12.1923 
 159   0.0000       0.451574        12.2879 
 160   0.0000       0.451890        12.2966 
 161   0.0000       0.454955        12.3800 
 162   0.0000       0.464109        12.6290 
 163   0.0000       0.466706        12.6997 
 164   0.0000       0.467182        12.7127 
 165   0.0000       0.478156        13.0113 
 166   0.0000       0.487604        13.2684 
 167   0.0000       0.493954        13.4412 
 168   0.0000       0.496383        13.5073 
 169   0.0000       0.504820        13.7368 
 170   0.0000       0.505550        13.7567 
 171   0.0000       0.506773        13.7900 
 172   0.0000       0.509276        13.8581 
 173   0.0000       0.520046        14.1512 
 174   0.0000       0.536661        14.6033 
 175   0.0000       0.537782        14.6338 
 176   0.0000       0.539466        14.6796 
 177   0.0000       0.539903        14.6915 
 178   0.0000       0.542308        14.7569 
 179   0.0000       0.549350        14.9486 
 180   0.0000       0.550001        14.9663 
 181   0.0000       0.561377        15.2758 
 182   0.0000       0.563343        15.3293 
 183   0.0000       0.572077        15.5670 
 184   0.0000       0.580080        15.7848 
 185   0.0000       0.590852        16.0779 
 186   0.0000       0.596941        16.2436 
 187   0.0000       0.602310        16.3897 
 188   0.0000       0.623498        16.9663 
 189   0.0000       0.624349        16.9894 
 190   0.0000       0.628521        17.1029 
 191   0.0000       0.628898        17.1132 
 192   0.0000       0.629131        17.1195 
 193   0.0000       0.635795        17.3009 
 194   0.0000       0.637930        17.3590 
 195   0.0000       0.646659        17.5965 
 196   0.0000       0.649845        17.6832 
 197   0.0000       0.653882        17.7930 
 198   0.0000       0.662405        18.0250 
 199   0.0000       0.663191        18.0463 
 200   0.0000       0.667695        18.1689 
 201   0.0000       0.673413        18.3245 
 202   0.0000       0.681148        18.5350 
 203   0.0000       0.688958        18.7475 
 204   0.0000       0.692101        18.8330 
 205   0.0000       0.696548        18.9540 
 206   0.0000       0.702741        19.1226 
 207   0.0000       0.712256        19.3815 
 208   0.0000       0.718211        19.5435 
 209   0.0000       0.721657        19.6373 
 210   0.0000       0.723359        19.6836 
 211   0.0000       0.724771        19.7220 
 212   0.0000       0.739693        20.1281 
 213   0.0000       0.750578        20.4243 
 214   0.0000       0.758548        20.6411 
 215   0.0000       0.761057        20.7094 
 216   0.0000       0.764188        20.7946 
 217   0.0000       0.764402        20.8004 
 218   0.0000       0.776266        21.1233 
 219   0.0000       0.777523        21.1575 
 220   0.0000       0.782426        21.2909 
 221   0.0000       0.784643        21.3512 
 222   0.0000       0.790078        21.4991 
 223   0.0000       0.791095        21.5268 
 224   0.0000       0.795080        21.6352 
 225   0.0000       0.797019        21.6880 
 226   0.0000       0.807681        21.9781 
 227   0.0000       0.812394        22.1064 
 228   0.0000       0.817765        22.2525 
 229   0.0000       0.824553        22.4372 
 230   0.0000       0.828529        22.5454 
 231   0.0000       0.841343        22.8941 
 232   0.0000       0.848409        23.0864 
 233   0.0000       0.851576        23.1726 
 234   0.0000       0.854912        23.2633 
 235   0.0000       0.856888        23.3171 
 236   0.0000       0.863722        23.5031 
 237   0.0000       0.876131        23.8407 
 238   0.0000       0.877034        23.8653 
 239   0.0000       0.880359        23.9558 
 240   0.0000       0.887353        24.1461 
 241   0.0000       0.894683        24.3456 
 242   0.0000       0.896212        24.3872 
 243   0.0000       0.903046        24.5731 
 244   0.0000       0.906471        24.6663 
 245   0.0000       0.912371        24.8269 
 246   0.0000       0.914533        24.8857 
 247   0.0000       0.936277        25.4774 
 248   0.0000       0.940398        25.5895 
 249   0.0000       0.943355        25.6700 
 250   0.0000       0.950402        25.8617 
 251   0.0000       0.954417        25.9710 
 252   0.0000       0.965826        26.2815 
 253   0.0000       0.982197        26.7269 
 254   0.0000       0.990878        26.9632 
 255   0.0000       0.991607        26.9830 
 256   0.0000       0.997208        27.1354 
 257   0.0000       1.012137        27.5416 
 258   0.0000       1.018821        27.7235 
 259   0.0000       1.024444        27.8765 
 260   0.0000       1.053552        28.6686 
 261   0.0000       1.055666        28.7261 
 262   0.0000       1.056178        28.7401 
 263   0.0000       1.062453        28.9108 
 264   0.0000       1.070532        29.1307 
 265   0.0000       1.072891        29.1949 
 266   0.0000       1.085020        29.5249 
 267   0.0000       1.089899        29.6577 
 268   0.0000       1.089987        29.6600 
 269   0.0000       1.098736        29.8981 
 270   0.0000       1.110567        30.2201 
 271   0.0000       1.135951        30.9108 
 272   0.0000       1.142671        31.0937 
 273   0.0000       1.157000        31.4836 
 274   0.0000       1.158189        31.5159 
 275   0.0000       1.166566        31.7439 
 276   0.0000       1.175288        31.9812 
 277   0.0000       1.203908        32.7600 
 278   0.0000       1.205611        32.8063 
 279   0.0000       1.210105        32.9286 
 280   0.0000       1.213762        33.0282 
 281   0.0000       1.220628        33.2150 
 282   0.0000       1.230386        33.4805 
 283   0.0000       1.231589        33.5132 
 284   0.0000       1.234948        33.6046 
 285   0.0000       1.237562        33.6758 
 286   0.0000       1.240828        33.7647 
 287   0.0000       1.247075        33.9346 
 288   0.0000       1.249487        34.0003 
 289   0.0000       1.254338        34.1323 
 290   0.0000       1.267070        34.4787 
 291   0.0000       1.281830        34.8804 
 292   0.0000       1.290611        35.1193 
 293   0.0000       1.291820        35.1522 
 294   0.0000       1.297990        35.3201 
 295   0.0000       1.303228        35.4626 
 296   0.0000       1.308174        35.5972 
 297   0.0000       1.313874        35.7523 
 298   0.0000       1.314359        35.7655 
 299   0.0000       1.323656        36.0185 
 300   0.0000       1.335310        36.3356 
 301   0.0000       1.343591        36.5610 
 302   0.0000       1.352617        36.8066 
 303   0.0000       1.363537        37.1037 
 304   0.0000       1.365695        37.1625 
 305   0.0000       1.373028        37.3620 
 306   0.0000       1.377355        37.4797 
 307   0.0000       1.382664        37.6242 
 308   0.0000       1.400366        38.1059 
 309   0.0000       1.406849        38.2823 
 310   0.0000       1.416125        38.5347 
 311   0.0000       1.417704        38.5777 
 312   0.0000       1.420387        38.6507 
 313   0.0000       1.422312        38.7031 
 314   0.0000       1.427411        38.8418 
 315   0.0000       1.428746        38.8782 
 316   0.0000       1.436798        39.0973 
 317   0.0000       1.437983        39.1295 
 318   0.0000       1.454925        39.5905 
 319   0.0000       1.467395        39.9298 
 320   0.0000       1.476845        40.1870 
 321   0.0000       1.484914        40.4066 
 322   0.0000       1.497953        40.7614 
 323   0.0000       1.508429        41.0464 
 324   0.0000       1.518326        41.3158 
 325   0.0000       1.528662        41.5970 
 326   0.0000       1.531131        41.6642 
 327   0.0000       1.532300        41.6960 
 328   0.0000       1.532714        41.7073 
 329   0.0000       1.540444        41.9176 
 330   0.0000       1.557023        42.3688 
 331   0.0000       1.572939        42.8019 
 332   0.0000       1.573525        42.8178 
 333   0.0000       1.575146        42.8619 
 334   0.0000       1.580217        42.9999 
 335   0.0000       1.590283        43.2738 
 336   0.0000       1.590706        43.2853 
 337   0.0000       1.602506        43.6064 
 338   0.0000       1.609935        43.8086 
 339   0.0000       1.613946        43.9177 
 340   0.0000       1.616415        43.9849 
 341   0.0000       1.632929        44.4343 
 342   0.0000       1.640094        44.6292 
 343   0.0000       1.646277        44.7975 
 344   0.0000       1.648006        44.8445 
 345   0.0000       1.653886        45.0045 
 346   0.0000       1.656180        45.0669 
 347   0.0000       1.662478        45.2383 
 348   0.0000       1.665551        45.3220 
 349   0.0000       1.670234        45.4494 
 350   0.0000       1.682802        45.7914 
 351   0.0000       1.700486        46.2726 
 352   0.0000       1.709253        46.5111 
 353   0.0000       1.710006        46.5316 
 354   0.0000       1.711239        46.5652 
 355   0.0000       1.724765        46.9332 
 356   0.0000       1.725924        46.9648 
 357   0.0000       1.732497        47.1436 
 358   0.0000       1.738805        47.3153 
 359   0.0000       1.750996        47.6470 
 360   0.0000       1.753631        47.7187 
 361   0.0000       1.760077        47.8941 
 362   0.0000       1.775526        48.3145 
 363   0.0000       1.782793        48.5123 
 364   0.0000       1.787306        48.6351 
 365   0.0000       1.808580        49.2140 
 366   0.0000       1.827758        49.7358 
 367   0.0000       1.833142        49.8823 
 368   0.0000       1.839604        50.0582 
 369   0.0000       1.856222        50.5104 
 370   0.0000       1.878488        51.1163 
 371   0.0000       1.886777        51.3418 
 372   0.0000       1.892046        51.4852 
 373   0.0000       1.896271        51.6001 
 374   0.0000       1.910596        51.9900 
 375   0.0000       1.917728        52.1840 
 376   0.0000       1.924623        52.3717 
 377   0.0000       1.930211        52.5237 
 378   0.0000       1.954555        53.1861 
 379   0.0000       1.972766        53.6817 
 380   0.0000       1.978159        53.8284 
 381   0.0000       1.979390        53.8619 
 382   0.0000       1.990082        54.1529 
 383   0.0000       2.002740        54.4973 
 384   0.0000       2.013546        54.7914 
 385   0.0000       2.014493        54.8171 
 386   0.0000       2.019629        54.9569 
 387   0.0000       2.033891        55.3450 
 388   0.0000       2.036617        55.4192 
 389   0.0000       2.050675        55.8017 
 390   0.0000       2.068379        56.2835 
 391   0.0000       2.073925        56.4344 
 392   0.0000       2.090734        56.8918 
 393   0.0000       2.111585        57.4592 
 394   0.0000       2.116943        57.6049 
 395   0.0000       2.123639        57.7872 
 396   0.0000       2.137534        58.1653 
 397   0.0000       2.150713        58.5239 
 398   0.0000       2.152012        58.5592 
 399   0.0000       2.152669        58.5771 
 400   0.0000       2.158222        58.7282 
 401   0.0000       2.179244        59.3003 
 402   0.0000       2.180821        59.3432 
 403   0.0000       2.200566        59.8804 
 404   0.0000       2.218145        60.3588 
 405   0.0000       2.222708        60.4830 
 406   0.0000       2.225484        60.5585 
 407   0.0000       2.231012        60.7089 
 408   0.0000       2.232731        60.7557 
 409   0.0000       2.241473        60.9936 
 410   0.0000       2.245200        61.0950 
 411   0.0000       2.248973        61.1977 
 412   0.0000       2.258251        61.4501 
 413   0.0000       2.279427        62.0264 
 414   0.0000       2.287348        62.2419 
 415   0.0000       2.287760        62.2531 
 416   0.0000       2.289631        62.3040 
 417   0.0000       2.297495        62.5180 
 418   0.0000       2.300423        62.5977 
 419   0.0000       2.323840        63.2349 
 420   0.0000       2.330881        63.4265 
 421   0.0000       2.338606        63.6367 
 422   0.0000       2.343570        63.7718 
 423   0.0000       2.371439        64.5301 
 424   0.0000       2.387622        64.9705 
 425   0.0000       2.400790        65.3288 
 426   0.0000       2.405311        65.4518 
 427   0.0000       2.429974        66.1229 
 428   0.0000       2.436567        66.3023 
 429   0.0000       2.440588        66.4118 
 430   0.0000       2.460570        66.9555 
 431   0.0000       2.463331        67.0306 
 432   0.0000       2.467181        67.1354 
 433   0.0000       2.483768        67.5868 
 434   0.0000       2.499564        68.0166 
 435   0.0000       2.510661        68.3186 
 436   0.0000       2.535149        68.9849 
 437   0.0000       2.535210        68.9866 
 438   0.0000       2.550801        69.4108 
 439   0.0000       2.559201        69.6394 
 440   0.0000       2.566717        69.8439 
 441   0.0000       2.574662        70.0601 
 442   0.0000       2.596976        70.6673 
 443   0.0000       2.603698        70.8502 
 444   0.0000       2.605442        70.8977 
 445   0.0000       2.610679        71.0402 
 446   0.0000       2.617207        71.2178 
 447   0.0000       2.629438        71.5507 
 448   0.0000       2.630999        71.5931 
 449   0.0000       2.640262        71.8452 
 450   0.0000       2.643230        71.9259 
 451   0.0000       2.644603        71.9633 
 452   0.0000       2.651840        72.1602 
 453   0.0000       2.656119        72.2767 
 454   0.0000       2.667776        72.5939 
 455   0.0000       2.679955        72.9253 
 456   0.0000       2.680880        72.9505 
 457   0.0000       2.688125        73.1476 
 458   0.0000       2.701845        73.5209 
 459   0.0000       2.707766        73.6820 
 460   0.0000       2.708602        73.7048 
 461   0.0000       2.716624        73.9231 
 462   0.0000       2.739516        74.5460 
[...]
|  sn= 9 | S(rot)=       0.36832716 Eh    231.13 kcal/mol|
|  sn=10 | S(rot)=       0.36632523 Eh    229.87 kcal/mol|
|  sn=11 | S(rot)=       0.36451426 Eh    228.74 kcal/mol|
|  sn=12 | S(rot)=       0.36286097 Eh    227.70 kcal/mol|
 --------------------------------------------------------


-------------------
GIBBS FREE ENERGY
-------------------

The Gibbs free energy is G = H - T*S

Total enthalpy                    ...   -916.05192335 Eh 
Total entropy correction          ...     -5.02891096 Eh  -3155.68 kcal/mol
-----------------------------------------------------------------------
Final Gibbs free energy         ...   -921.08083431 Eh

For completeness - the Gibbs free energy minus the electronic energy
G-E(el)                           ...     -3.36279185 Eh  -2110.18 kcal/mol


The first frequency considered to be a vibration is 7
The total number of vibrations considered is 83


--------------------------
THERMOCHEMISTRY AT 8000.00K
--------------------------

Temperature         ... 8000.00 K
Pressure            ... 1.00 atm
Total Mass          ... 294.31 AMU

Throughout the following assumptions are being made:
  (1) The electronic state is orbitally nondegenerate
  (2) There are no thermally accessible electronically excited states
  (3) Hindered rotations indicated by low frequency modes are not
      treated as such but are treated as vibrations and this may
      cause some error
  (4) All equations used are the standard statistical mechanics
      equations for an ideal gas
  (5) All vibrations are strictly harmonic

freq.      48.57  E(vib)   ...      15.83 
freq.      89.46  E(vib)   ...      15.77 
freq.     128.40  E(vib)   ...      15.72 
freq.     173.65  E(vib)   ...      15.65 
freq.     222.35  E(vib)   ...      15.58 
freq.     271.71  E(vib)   ...      15.51 
freq.     275.48  E(vib)   ...      15.51 
freq.     305.20  E(vib)   ...      15.47 
freq.     338.42  E(vib)   ...      15.42 
freq.     345.87  E(vib)   ...      15.41 
freq.     354.64  E(vib)   ...      15.40 
freq.     367.84  E(vib)   ...      15.38 
freq.     393.99  E(vib)   ...      15.34 
freq.     399.95  E(vib)   ...      15.33 
freq.     425.08  E(vib)   ...      15.30 
freq.     429.03  E(vib)   ...      15.29 
freq.     462.64  E(vib)   ...      15.25 
freq.     465.07  E(vib)   ...      15.24 
freq.     487.79  E(vib)   ...      15.21 
freq.     500.25  E(vib)   ...      15.19 
freq.     511.59  E(vib)   ...      15.18 
freq.     513.17  E(vib)   ...      15.18 
freq.     527.17  E(vib)   ...      15.16 
freq.     536.09  E(vib)   ...      15.14 
freq.     555.25  E(vib)   ...      15.12 
freq.     593.07  E(vib)   ...      15.07 
freq.     597.15  E(vib)   ...      15.06 
freq.     660.22  E(vib)   ...      14.97 
freq.     669.76  E(vib)   ...      14.96 
freq.     678.51  E(vib)   ...      14.95 
freq.     704.20  E(vib)   ...      14.91 
freq.     724.45  E(vib)   ...      14.88 
freq.     745.19  E(vib)   ...      14.86 
freq.     784.74  E(vib)   ...      14.80 
freq.     806.61  E(vib)   ...      14.77 
freq.     819.49  E(vib)   ...      14.76 
freq.     833.16  E(vib)   ...      14.74 
freq.     846.73  E(vib)   ...      14.72 
freq.     848.47  E(vib)   ...      14.72 
freq.     857.87  E(vib)   ...      14.70 
freq.     864.09  E(vib)   ...      14.69 
freq.     877.65  E(vib)   ...      14.68 
freq.     953.85  E(vib)   ...      14.57 
freq.     981.48  E(vib)   ...      14.54 
freq.     991.62  E(vib)   ...      14.52 
freq.     996.09  E(vib)   ...      14.52 
freq.    1024.51  E(vib)   ...      14.48 
freq.    1102.67  E(vib)   ...      14.37 
freq.    1133.34  E(vib)   ...      14.33 
freq.    1141.62  E(vib)   ...      14.32 
freq.    1167.92  E(vib)   ...      14.29 
freq.    1190.34  E(vib)   ...      14.26 
freq.    1201.57  E(vib)   ...      14.24 
freq.    1220.29  E(vib)   ...      14.22 
freq.    1231.86  E(vib)   ...      14.20 
freq.    1251.34  E(vib)   ...      14.18 
freq.    1262.00  E(vib)   ...      14.16 
freq.    1294.92  E(vib)   ...      14.12 
freq.    1327.21  E(vib)   ...      14.08 
freq.    1332.72  E(vib)   ...      14.07 
freq.    1360.67  E(vib)   ...      14.03 
freq.    1373.47  E(vib)   ...      14.02 
freq.    1393.96  E(vib)   ...      13.99 
freq.    1407.76  E(vib)   ...      13.97 
freq.    1411.64  E(vib)   ...      13.97 
freq.    1455.71  E(vib)   ...      13.91 
freq.    1467.74  E(vib)   ...      13.89 
freq.    1480.31  E(vib)   ...      13.88 
freq.    1509.61  E(vib)   ...      13.84 
freq.    1553.54  E(vib)   ...      13.78 
freq.    1582.17  E(vib)   ...      13.74 
freq.    1600.94  E(vib)   ...      13.72 
freq.    1644.56  E(vib)   ...      13.66 
freq.    1646.41  E(vib)   ...      13.66 
freq.    1706.13  E(vib)   ...      13.58 
freq.    2121.60  E(vib)   ...      13.06 
freq.    2142.36  E(vib)   ...      13.03 
freq.    3186.33  E(vib)   ...      11.78 
freq.    3191.73  E(vib)   ...      11.77 
freq.    3218.45  E(vib)   ...      11.74 
freq.    3232.97  E(vib)   ...      11.72 
freq.    3238.35  E(vib)   ...      11.72 
freq.    3247.53  E(vib)   ...      11.70 

------------
INNER ENERGY
------------

The inner energy is: U= E(el) + E(ZPE) + E(vib) + E(rot) + E(trans)
    E(el)   - is the total energy from the electronic structure calculation
              = E(kin-el) + E(nuc-el) + E(el-el) + E(nuc-nuc)
    E(ZPE)  - the the zero temperature vibrational energy from the frequency calculation
    E(vib)  - the the finite temperature correction to E(ZPE) due to population
              of excited vibrational states
    E(rot)  - is the rotational thermal energy
    E(trans)- is the translational thermal energy

Summary of contributions to the inner energy U:
Electronic energy                ...   -917.71804246 Eh
Zero point energy                ...      0.20280091 Eh     127.26 kcal/mol
Thermal vibrational correction   ...      1.90979060 Eh    1198.41 kcal/mol
Thermal rotational correction    ...      0.03800158 Eh      23.85 kcal/mol
Thermal translational correction ...      0.03800158 Eh      23.85 kcal/mol
-----------------------------------------------------------------------
Total thermal energy                   -915.52944778 Eh


Summary of corrections to the electronic energy:
(perhaps to be used in another calculation)
Total thermal correction                  1.98579377 Eh    1246.10 kcal/mol
Non-thermal (ZPE) correction              0.20280091 Eh     127.26 kcal/mol
-----------------------------------------------------------------------
Total correction                          2.18859468 Eh    1373.36 kcal/mol


--------
ENTHALPY
--------

The enthalpy is H = U + kB*T
                kB is Boltzmann's constant
Total free energy                 ...   -915.52944778 Eh 
Thermal Enthalpy correction       ...      0.02533514 Eh      15.90 kcal/mol
-----------------------------------------------------------------------
Total Enthalpy                    ...   -915.50411264 Eh


Note: Only C1 symmetry has been detected, increase convergence thresholds 
      if your molecule has a higher symmetry. Symmetry factor of 1.0 is   
      used for the rotational entropy correction. 
 

Note: Rotational entropy computed according to Herzberg 
Infrared and Raman Spectra, Chapter V,1, Van Nostrand Reinhold, 1945 
Point Group:  C1, Symmetry Number:   1  
Rotational constants in cm-1:     0.011844     0.011755     0.005900 

Vibrational entropy computed according to the QRRHO of S. Grimme
Chem.Eur.J. 2012 18 9955


-------
ENTROPY
-------

The entropy contributions are T*S = T*(S(el)+S(vib)+S(rot)+S(trans))
     S(el)   - electronic entropy
     S(vib)  - vibrational entropy
     S(rot)  - rotational entropy
     S(trans)- translational entropy
The entropies will be listed as multiplied by the temperature to get
units of energy

Electronic entropy                ...      0.00000000 Eh      0.00 kcal/mol
Vibrational entropy               ...      6.01454763 Eh   3774.18 kcal/mol
Rotational entropy                ...      0.55770059 Eh    349.96 kcal/mol
Translational entropy             ...      0.75572723 Eh    474.22 kcal/mol
-----------------------------------------------------------------------
Final entropy term                ...      7.32797545 Eh   4598.36 kcal/mol

In case the symmetry of your molecule has not been determined correctly
or in case you have a reason to use a different symmetry number we print 
out the resulting rotational entropy values for sn=1,12 :
 --------------------------------------------------------
|  sn= 1 | S(rot)=       0.55770059 Eh    349.96 kcal/mol|
|  sn= 2 | S(rot)=       0.54014013 Eh    338.94 kcal/mol|
|  sn= 3 | S(rot)=       0.52986792 Eh    332.50 kcal/mol|
|  sn= 4 | S(rot)=       0.52257967 Eh    327.92 kcal/mol|
|  sn= 5 | S(rot)=       0.51692647 Eh    324.38 kcal/mol|
|  sn= 6 | S(rot)=       0.51230746 Eh    321.48 kcal/mol|
|  sn= 7 | S(rot)=       0.50840215 Eh    319.03 kcal/mol|
|  sn= 8 | S(rot)=       0.50501921 Eh    316.90 kcal/mol|
|  sn= 9 | S(rot)=       0.50203525 Eh    315.03 kcal/mol|
|  sn=10 | S(rot)=       0.49936601 Eh    313.36 kcal/mol|
|  sn=11 | S(rot)=       0.49695138 Eh    311.84 kcal/mol|
|  sn=12 | S(rot)=       0.49474700 Eh    310.46 kcal/mol|
 --------------------------------------------------------


-------------------
GIBBS FREE ENERGY
-------------------

The Gibbs free energy is G = H - T*S

Total enthalpy                    ...   -915.50411264 Eh 
Total entropy correction          ...     -7.32797545 Eh  -4598.36 kcal/mol
-----------------------------------------------------------------------
Final Gibbs free energy         ...   -922.83208809 Eh

For completeness - the Gibbs free energy minus the electronic energy
G-E(el)                           ...     -5.11404563 Eh  -3209.11 kcal/mol


The first frequency considered to be a vibration is 7
The total number of vibrations considered is 83


--------------------------
THERMOCHEMISTRY AT 10000.00K
--------------------------

Temperature         ... 10000.00 K
Pressure            ... 1.00 atm
Total Mass          ... 294.31 AMU

Throughout the following assumptions are being made:
  (1) The electronic state is orbitally nondegenerate
  (2) There are no thermally accessible electronically excited states
  (3) Hindered rotations indicated by low frequency modes are not
      treated as such but are treated as vibrations and this may
      cause some error
  (4) All equations used are the standard statistical mechanics
      equations for an ideal gas
  (5) All vibrations are strictly harmonic

freq.      48.57  E(vib)   ...      19.80 
freq.      89.46  E(vib)   ...      19.74 
freq.     128.40  E(vib)   ...      19.69 
freq.     173.65  E(vib)   ...      19.63 
freq.     222.35  E(vib)   ...      19.56 
freq.     271.71  E(vib)   ...      19.49 
freq.     275.48  E(vib)   ...      19.48 
freq.     305.20  E(vib)   ...      19.44 
freq.     338.42  E(vib)   ...      19.39 
freq.     345.87  E(vib)   ...      19.38 
freq.     354.64  E(vib)   ...      19.37 
freq.     367.84  E(vib)   ...      19.35 
freq.     393.99  E(vib)   ...      19.31 
freq.     399.95  E(vib)   ...      19.31 
freq.     425.08  E(vib)   ...      19.27 
freq.     429.03  E(vib)   ...      19.27 
freq.     462.64  E(vib)   ...      19.22 
freq.     465.07  E(vib)   ...      19.22 
freq.     487.79  E(vib)   ...      19.18 
freq.     500.25  E(vib)   ...      19.17 
freq.     511.59  E(vib)   ...      19.15 
freq.     513.17  E(vib)   ...      19.15 
freq.     527.17  E(vib)   ...      19.13 
freq.     536.09  E(vib)   ...      19.12 
freq.     555.25  E(vib)   ...      19.09 
freq.     593.07  E(vib)   ...      19.04 
freq.     597.15  E(vib)   ...      19.03 
freq.     660.22  E(vib)   ...      18.94 
freq.     669.76  E(vib)   ...      18.93 
freq.     678.51  E(vib)   ...      18.92 
freq.     704.20  E(vib)   ...      18.88 
freq.     724.45  E(vib)   ...      18.85 
freq.     745.19  E(vib)   ...      18.83 
freq.     784.74  E(vib)   ...      18.77 
freq.     806.61  E(vib)   ...      18.74 
freq.     819.49  E(vib)   ...      18.72 
freq.     833.16  E(vib)   ...      18.71 
freq.     846.73  E(vib)   ...      18.69 
freq.     848.47  E(vib)   ...      18.68 
freq.     857.87  E(vib)   ...      18.67 
freq.     864.09  E(vib)   ...      18.66 
freq.     877.65  E(vib)   ...      18.64 
freq.     953.85  E(vib)   ...      18.54 
freq.     981.48  E(vib)   ...      18.50 
freq.     991.62  E(vib)   ...      18.49 
freq.     996.09  E(vib)   ...      18.48 
freq.    1024.51  E(vib)   ...      18.44 
freq.    1102.67  E(vib)   ...      18.34 
freq.    1133.34  E(vib)   ...      18.30 
freq.    1141.62  E(vib)   ...      18.29 
freq.    1167.92  E(vib)   ...      18.25 
freq.    1190.34  E(vib)   ...      18.22 
freq.    1201.57  E(vib)   ...      18.20 
freq.    1220.29  E(vib)   ...      18.18 
freq.    1231.86  E(vib)   ...      18.16 
freq.    1251.34  E(vib)   ...      18.14 
freq.    1262.00  E(vib)   ...      18.12 
freq.    1294.92  E(vib)   ...      18.08 
freq.    1327.21  E(vib)   ...      18.04 
freq.    1332.72  E(vib)   ...      18.03 
freq.    1360.67  E(vib)   ...      17.99 
freq.    1373.47  E(vib)   ...      17.97 
freq.    1393.96  E(vib)   ...      17.95 
freq.    1407.76  E(vib)   ...      17.93 
freq.    1411.64  E(vib)   ...      17.92 
freq.    1455.71  E(vib)   ...      17.86 
freq.    1467.74  E(vib)   ...      17.85 
freq.    1480.31  E(vib)   ...      17.83 
freq.    1509.61  E(vib)   ...      17.79 
freq.    1553.54  E(vib)   ...      17.73 
freq.    1582.17  E(vib)   ...      17.70 
freq.    1600.94  E(vib)   ...      17.67 
freq.    1644.56  E(vib)   ...      17.61 
freq.    1646.41  E(vib)   ...      17.61 
freq.    1706.13  E(vib)   ...      17.53 
freq.    2121.60  E(vib)   ...      16.99 
freq.    2142.36  E(vib)   ...      16.97 
freq.    3186.33  E(vib)   ...      15.66 
freq.    3191.73  E(vib)   ...      15.66 
freq.    3218.45  E(vib)   ...      15.63 
freq.    3232.97  E(vib)   ...      15.61 
freq.    3238.35  E(vib)   ...      15.60 
freq.    3247.53  E(vib)   ...      15.59 

------------
INNER ENERGY
------------

The inner energy is: U= E(el) + E(ZPE) + E(vib) + E(rot) + E(trans)
    E(el)   - is the total energy from the electronic structure calculation
              = E(kin-el) + E(nuc-el) + E(el-el) + E(nuc-nuc)
    E(ZPE)  - the the zero temperature vibrational energy from the frequency calculation
    E(vib)  - the the finite temperature correction to E(ZPE) due to population
              of excited vibrational states
    E(rot)  - is the rotational thermal energy
    E(trans)- is the translational thermal energy

Summary of contributions to the inner energy U:
Electronic energy                ...   -917.71804246 Eh
Zero point energy                ...      0.20280091 Eh     127.26 kcal/mol
Thermal vibrational correction   ...      2.43354828 Eh    1527.07 kcal/mol
Thermal rotational correction    ...      0.04750198 Eh      29.81 kcal/mol
Thermal translational correction ...      0.04750198 Eh      29.81 kcal/mol
-----------------------------------------------------------------------
Total thermal energy                   -914.98668931 Eh


Summary of corrections to the electronic energy:
(perhaps to be used in another calculation)
Total thermal correction                  2.52855223 Eh    1586.69 kcal/mol
Non-thermal (ZPE) correction              0.20280091 Eh     127.26 kcal/mol
-----------------------------------------------------------------------
Total correction                          2.73135314 Eh    1713.95 kcal/mol


--------
ENTHALPY
--------

The enthalpy is H = U + kB*T
                kB is Boltzmann's constant
Total free energy                 ...   -914.98668931 Eh 
Thermal Enthalpy correction       ...      0.03166893 Eh      19.87 kcal/mol
-----------------------------------------------------------------------
Total Enthalpy                    ...   -914.95502039 Eh


Note: Only C1 symmetry has been detected, increase convergence thresholds 
      if your molecule has a higher symmetry. Symmetry factor of 1.0 is   
      used for the rotational entropy correction. 
 

Note: Rotational entropy computed according to Herzberg 
Infrared and Raman Spectra, Chapter V,1, Van Nostrand Reinhold, 1945 
Point Group:  C1, Symmetry Number:   1  
Rotational constants in cm-1:     0.011844     0.011755     0.005900 

Vibrational entropy computed according to the QRRHO of S. Grimme
Chem.Eur.J. 2012 18 9955


-------
ENTROPY
-------

The entropy contributions are T*S = T*(S(el)+S(vib)+S(rot)+S(trans))
     S(el)   - electronic entropy
     S(vib)  - vibrational entropy
     S(rot)  - rotational entropy
     S(trans)- translational entropy
The entropies will be listed as multiplied by the temperature to get
units of energy

Electronic entropy                ...      0.00000000 Eh      0.00 kcal/mol
Vibrational entropy               ...      8.09519284 Eh   5079.80 kcal/mol
Rotational entropy                ...      0.70772550 Eh    444.10 kcal/mol
Translational entropy             ...      0.96232531 Eh    603.87 kcal/mol
-----------------------------------------------------------------------
Final entropy term                ...      9.76524365 Eh   6127.77 kcal/mol

In case the symmetry of your molecule has not been determined correctly
or in case you have a reason to use a different symmetry number we print 
out the resulting rotational entropy values for sn=1,12 :
 --------------------------------------------------------
|  sn= 1 | S(rot)=       0.70772550 Eh    444.10 kcal/mol|
|  sn= 2 | S(rot)=       0.68577492 Eh    430.33 kcal/mol|
|  sn= 3 | S(rot)=       0.67293466 Eh    422.27 kcal/mol|
|  sn= 4 | S(rot)=       0.66382435 Eh    416.56 kcal/mol|
|  sn= 5 | S(rot)=       0.65675784 Eh    412.12 kcal/mol|
|  sn= 6 | S(rot)=       0.65098409 Eh    408.50 kcal/mol|
|  sn= 7 | S(rot)=       0.64610245 Eh    405.43 kcal/mol|
|  sn= 8 | S(rot)=       0.64187378 Eh    402.78 kcal/mol|
|  sn= 9 | S(rot)=       0.63814383 Eh    400.44 kcal/mol|
|  sn=10 | S(rot)=       0.63480727 Eh    398.35 kcal/mol|
|  sn=11 | S(rot)=       0.63178899 Eh    396.45 kcal/mol|
|  sn=12 | S(rot)=       0.62903351 Eh    394.72 kcal/mol|
 --------------------------------------------------------


-------------------
GIBBS FREE ENERGY
-------------------

The Gibbs free energy is G = H - T*S

Total enthalpy                    ...   -914.95502039 Eh 
Total entropy correction          ...     -9.76524365 Eh  -6127.77 kcal/mol
-----------------------------------------------------------------------
Final Gibbs free energy         ...   -924.72026403 Eh

For completeness - the Gibbs free energy minus the electronic energy
G-E(el)                           ...     -7.00222158 Eh  -4393.95 kcal/mol


Timings for individual modules:

Sum of individual times         ...    12206.723 sec (= 203.445 min)
GTO integral calculation        ...       61.908 sec (=   1.032 min)   0.5 %
SCF iterations                  ...     2833.296 sec (=  47.222 min)  23.2 %
SCF Gradient evaluation         ...      659.975 sec (=  11.000 min)   5.4 %
Geometry relaxation             ...       16.595 sec (=   0.277 min)   0.1 %
Analytical frequency calculation...     8634.949 sec (= 143.916 min)  70.7 %
                             ****ORCA TERMINATED NORMALLY****
TOTAL RUN TIME: 0 days 3 hours 23 minutes 43 seconds 868 msec
