
                                 *****************
                                 * O   R   C   A *
                                 *****************

                                            #,                                       
                                            ###                                      
                                            ####                                     
                                            #####                                    
                                            ######                                   
                                           ########,                                 
                                     ,,################,,,,,                         
                               ,,#################################,,                 
                          ,,##########################################,,             
                       ,#########################################, ''#####,          
                    ,#############################################,,   '####,        
                  ,##################################################,,,,####,       
                ,###########''''           ''''###############################       
              ,#####''   ,,,,##########,,,,          '''####'''          '####       
            ,##' ,,,,###########################,,,                        '##       
           ' ,,###''''                  '''############,,,                           
         ,,##''                                '''############,,,,        ,,,,,,###''
      ,#''                                            '''#######################'''  
     '                                                          ''''####''''         
             ,#######,   #######,   ,#######,      ##                                
            ,#'     '#,  ##    ##  ,#'     '#,    #''#        ######   ,####,        
            ##       ##  ##   ,#'  ##            #'  '#       #        #'  '#        
            ##       ##  #######   ##           ,######,      #####,   #    #        
            '#,     ,#'  ##    ##  '#,     ,#' ,#      #,         ##   #,  ,#        
             '#######'   ##     ##  '#######'  #'      '#     #####' # '####'        



                  #######################################################
                  #                        -***-                        #
                  #          Department of theory and spectroscopy      #
                  #    Directorship and core code : Frank Neese         #
                  #        Max Planck Institute fuer Kohlenforschung    #
                  #                Kaiser Wilhelm Platz 1               #
                  #                 D-45470 Muelheim/Ruhr               #
                  #                      Germany                        #
                  #                                                     #
                  #                  All rights reserved                #
                  #                        -***-                        #
                  #######################################################



                         Program Version 5.0.4 -  RELEASE  -

 With contributions from (in alphabetic order):
   Daniel Aravena         : Magnetic Suceptibility
   Michael Atanasov       : Ab Initio Ligand Field Theory (pilot matlab implementation)
   Alexander A. Auer      : GIAO ZORA, VPT2 properties, NMR spectrum
   Ute Becker             : Parallelization
   Giovanni Bistoni       : ED, misc. LED, open-shell LED, HFLD
   Martin Brehm           : Molecular dynamics
   Dmytro Bykov           : SCF Hessian
   Vijay G. Chilkuri      : MRCI spin determinant printing, contributions to CSF-ICE
   Dipayan Datta          : RHF DLPNO-CCSD density
   Achintya Kumar Dutta   : EOM-CC, STEOM-CC
   Dmitry Ganyushin       : Spin-Orbit,Spin-Spin,Magnetic field MRCI
   Miquel Garcia          : C-PCM and meta-GGA Hessian, CC/C-PCM, Gaussian charge scheme
   Yang Guo               : DLPNO-NEVPT2, F12-NEVPT2, CIM, IAO-localization
   Andreas Hansen         : Spin unrestricted coupled pair/coupled cluster methods
   Benjamin Helmich-Paris : MC-RPA, TRAH-SCF, COSX integrals
   Lee Huntington         : MR-EOM, pCC
   Robert Izsak           : Overlap fitted RIJCOSX, COSX-SCS-MP3, EOM
   Marcus Kettner         : VPT2
   Christian Kollmar      : KDIIS, OOCD, Brueckner-CCSD(T), CCSD density, CASPT2, CASPT2-K
   Simone Kossmann        : Meta GGA functionals, TD-DFT gradient, OOMP2, MP2 Hessian
   Martin Krupicka        : Initial AUTO-CI
   Lucas Lang             : DCDCAS
   Marvin Lechner         : AUTO-CI (C++ implementation), FIC-MRCC
   Dagmar Lenk            : GEPOL surface, SMD
   Dimitrios Liakos       : Extrapolation schemes; Compound Job, initial MDCI parallelization
   Dimitrios Manganas     : Further ROCIS development; embedding schemes
   Dimitrios Pantazis     : SARC Basis sets
   Anastasios Papadopoulos: AUTO-CI, single reference methods and gradients
   Taras Petrenko         : DFT Hessian,TD-DFT gradient, ASA, ECA, R-Raman, ABS, FL, XAS/XES, NRVS
   Peter Pinski           : DLPNO-MP2, DLPNO-MP2 Gradient
   Christoph Reimann      : Effective Core Potentials
   Marius Retegan         : Local ZFS, SOC
   Christoph Riplinger    : Optimizer, TS searches, QM/MM, DLPNO-CCSD(T), (RO)-DLPNO pert. Triples
   Tobias Risthaus        : Range-separated hybrids, TD-DFT gradient, RPA, STAB
   Michael Roemelt        : Original ROCIS implementation
   Masaaki Saitow         : Open-shell DLPNO-CCSD energy and density
   Barbara Sandhoefer     : DKH picture change effects
   Avijit Sen             : IP-ROCIS
   Kantharuban Sivalingam : CASSCF convergence, NEVPT2, FIC-MRCI
   Bernardo de Souza      : ESD, SOC TD-DFT
   Georgi Stoychev        : AutoAux, RI-MP2 NMR, DLPNO-MP2 response
   Willem Van den Heuvel  : Paramagnetic NMR
   Boris Wezisla          : Elementary symmetry handling
   Frank Wennmohs         : Technical directorship


 We gratefully acknowledge several colleagues who have allowed us to
 interface, adapt or use parts of their codes:
   Stefan Grimme, W. Hujo, H. Kruse, P. Pracht,  : VdW corrections, initial TS optimization,
                  C. Bannwarth, S. Ehlert          DFT functionals, gCP, sTDA/sTD-DF
   Ed Valeev, F. Pavosevic, A. Kumar             : LibInt (2-el integral package), F12 methods
   Garnet Chan, S. Sharma, J. Yang, R. Olivares  : DMRG
   Ulf Ekstrom                                   : XCFun DFT Library
   Mihaly Kallay                                 : mrcc  (arbitrary order and MRCC methods)
   Jiri Pittner, Ondrej Demel                    : Mk-CCSD
   Frank Weinhold                                : gennbo (NPA and NBO analysis)
   Christopher J. Cramer and Donald G. Truhlar   : smd solvation model
   Lars Goerigk                                  : TD-DFT with DH, B97 family of functionals
   V. Asgeirsson, H. Jonsson                     : NEB implementation
   FAccTs GmbH                                   : IRC, NEB, NEB-TS, DLPNO-Multilevel, CI-OPT
                                                   MM, QMMM, 2- and 3-layer-ONIOM, Crystal-QMMM,
                                                   LR-CPCM, SF, NACMEs, symmetry and pop. for TD-DFT,
                                                   nearIR, NL-DFT gradient (VV10), updates on ESD,
                                                   ML-optimized integration grids
   S Lehtola, MJT Oliveira, MAL Marques          : LibXC Library
   Liviu Ungur et al                             : ANISO software


 Your calculation uses the libint2 library for the computation of 2-el integrals
 For citations please refer to: http://libint.valeyev.net

 Your ORCA version has been built with support for libXC version: 5.1.0
 For citations please refer to: https://tddft.org/programs/libxc/

 This ORCA versions uses:
   CBLAS   interface :  Fast vector & matrix operations
   LAPACKE interface :  Fast linear algebra routines
   Shared memory     :  Shared parallel matrices


XCFun DFT library Copyright 2009-2010 Ulf Ekstrom and contributors.
See http://admol.org/xcfun for more information.
This is free software; see the source code for copying conditions.
There is ABSOLUTELY NO WARRANTY; not even for MERCHANTABILITY or FITNESS FOR A PARTICULAR PURPOSE.
For details see the documentation.
Scientific users of this library should cite U. Ekstrom, L. Visscher, R. Bast, A. J. Thorvaldsen and K. Ruud;
J.Chem.Theor.Comp. 2010, DOI: 10.1021/ct100117s
XCFun Version 0.99 

================================================================================

----- Orbital basis set information -----
Your calculation utilizes the basis: def2-TZVP
   F. Weigend and R. Ahlrichs, Phys. Chem. Chem. Phys. 7, 3297 (2005).

----- AuxJ basis set information -----
Your calculation utilizes the auxiliary basis: def2/J
   F. Weigend, Phys. Chem. Chem. Phys. 8, 1057 (2006).

================================================================================
                                        WARNINGS
                       Please study these warnings very carefully!
================================================================================

WARNING: Old DensityContainer found on disk!
         Will remove this file - 
         If you want to keep old densities, please start your calculation with a different basename. 


WARNING: Geometry Optimization
  ===> : Switching off AutoStart
         For restart on a previous wavefunction, please use MOREAD

WARNING: Minnesota functionals are quite sensitive to the integration grid.
         see SE Wheeler, KN Houk, JCTC 2010, 6, 395,
             N Mardirossian, M Head-Gordon, JCTC 2016, 12, 4303.
         DEFGRID3 seems to be a minimum grid for reliable results with these functionals!
  ===> : Please increase the integration grid!


INFO   : the flag for use of the SHARK integral package has been found!

================================================================================
                                       INPUT FILE
================================================================================
NAME = coronene_pristine.inp
|  1> !M062X def2-Tzvp opt freq
|  2> %maxcore 7000
|  3> %pal
|  4> nprocs 2
|  5> end
|  6> 
|  7> * XYZ 0 1
|  8>   C   2.46738420969044     -2.81263795783172     -0.00000966049012
|  9>   C   1.29021523102800     -3.51201377298185     -0.00004058752843
| 10>   C   0.03545823654551     -2.84357180192689     -0.00011700654154
| 11>   C   -1.20218758884439     -3.54318722424976     -0.00015075042869
| 12>   C   -2.39648198994610     -2.87343733279545     -0.00022388485081
| 13>   C   -2.44483130317816     -1.45256921864444     -0.00026846552257
| 14>   C   -3.66953458511693     -0.73051865229528     -0.00034472511273
| 15>   C   -3.68661914160231      0.63861472840141     -0.00038730418280
| 16>   C   -2.48033157917503      1.39101004534826     -0.00035686907249
| 17>   C   -2.46738422792533      2.81263810716101     -0.00040016524558
| 18>   C   -1.29021516017741      3.51201377026014     -0.00036907952599
| 19>   C   -0.03545824433177      2.84357164855152     -0.00029288255853
| 20>   C   1.20218752109912      3.54318714702554     -0.00025868906408
| 21>   C   2.39648192584401      2.87343728473768     -0.00018556866102
| 22>   C   2.44483133698195      1.45256923480284     -0.00014000970252
| 23>   C   3.66953468525759      0.73051872239281     -0.00006428529983
| 24>   C   3.68661917516395     -0.63861465299814     -0.00002177884745
| 25>   C   2.48033158796062     -1.39100989330468     -0.00005249628054
| 26>   C   1.24283538920719     -0.69700184097772     -0.00012812520396
| 27>   C   1.22507788089312      0.72785817295726     -0.00017277212960
| 28>   C   -0.01778931269948      1.42488311059932     -0.00024838531844
| 29>   C   -1.24283548786547      0.69700179739327     -0.00028095765872
| 30>   C   -1.22507784798994     -0.72785823769859     -0.00023664253283
| 31>   C   0.01778926369246     -1.42488327113558     -0.00016058910124
| 32>   H   3.41550123147825     -3.34209676159282      0.00004910526765
| 33>   H   1.30169328790670     -4.59787475323892     -0.00000731993262
| 34>   H   -1.18632309082569     -4.62898226472676     -0.00011753033763
| 35>   H   -3.33114883046848     -3.42627830125467     -0.00024867043727
| 36>   H   -4.60200524090237     -1.28700819551871     -0.00036909708835
| 37>   H   -4.63271390284347      1.17161298430852     -0.00044608968339
| 38>   H   -3.41550124203130      3.34209675863002     -0.00045950330323
| 39>   H   -1.30169305214735      4.59787465380430     -0.00040321338515
| 40>   H   1.18632293779304      4.62898220026966     -0.00029320761784
| 41>   H   3.33114870064961      3.42627836580996     -0.00016042132367
| 42>   H   4.60200524894750      1.28700844288560     -0.00003923404308
| 43>   H   4.63271397793190     -1.17161304216713      0.00003686274508
| 44> **                         ****END OF INPUT****
================================================================================

                       *****************************
                       * Geometry Optimization Run *
                       *****************************

Geometry optimization settings:
Update method            Update   .... BFGS
Choice of coordinates    CoordSys .... Z-matrix Internals
Initial Hessian          InHess   .... Almoef's Model

Convergence Tolerances:
Energy Change            TolE     ....  5.0000e-06 Eh
Max. Gradient            TolMAXG  ....  3.0000e-04 Eh/bohr
RMS Gradient             TolRMSG  ....  1.0000e-04 Eh/bohr
Max. Displacement        TolMAXD  ....  4.0000e-03 bohr
RMS Displacement         TolRMSD  ....  2.0000e-03 bohr
Strict Convergence                ....  False
------------------------------------------------------------------------------
                        ORCA OPTIMIZATION COORDINATE SETUP
------------------------------------------------------------------------------

The optimization will be done in new redundant internal coordinates
Making redundant internal coordinates   ...  (new redundants) done
Evaluating the initial hessian          ...  (Almloef) done
Evaluating the coordinates              ...  done
Calculating the B-matrix                .... done
Calculating the G-matrix                .... done
Diagonalizing the G-matrix              .... done
The first mode is                       ....  132
The number of degrees of freedom        ....  102

    -----------------------------------------------------------------
                    Redundant Internal Coordinates


    -----------------------------------------------------------------
         Definition                    Initial Value    Approx d2E/dq
    -----------------------------------------------------------------
      1. B(C   1,C   0)                  1.3693         0.674279   
      2. B(C   2,C   1)                  1.4217         0.556114   
      3. B(C   3,C   2)                  1.4217         0.556115   
      4. B(C   4,C   3)                  1.3693         0.674233   
      5. B(C   5,C   4)                  1.4217         0.556133   
      6. B(C   6,C   5)                  1.4217         0.556096   
      7. B(C   7,C   6)                  1.3692         0.674310   
      8. B(C   8,C   7)                  1.4217         0.556115   
      9. B(C   9,C   8)                  1.4217         0.556140   
     10. B(C  10,C   9)                  1.3693         0.674279   
     11. B(C  11,C  10)                  1.4217         0.556114   
     12. B(C  12,C  11)                  1.4217         0.556115   
     13. B(C  13,C  12)                  1.3693         0.674233   
     14. B(C  14,C  13)                  1.4217         0.556133   
     15. B(C  15,C  14)                  1.4217         0.556096   
     16. B(C  16,C  15)                  1.3692         0.674310   
     17. B(C  17,C  16)                  1.4217         0.556115   
     18. B(C  17,C   0)                  1.4217         0.556140   
     19. B(C  18,C  17)                  1.4188         0.562033   
     20. B(C  19,C  18)                  1.4250         0.549471   
     21. B(C  19,C  14)                  1.4188         0.562061   
     22. B(C  20,C  19)                  1.4250         0.549456   
     23. B(C  20,C  11)                  1.4188         0.562072   
     24. B(C  21,C  20)                  1.4250         0.549466   
     25. B(C  21,C   8)                  1.4188         0.562033   
     26. B(C  22,C  21)                  1.4250         0.549471   
     27. B(C  22,C   5)                  1.4188         0.562061   
     28. B(C  23,C  22)                  1.4250         0.549456   
     29. B(C  23,C  18)                  1.4250         0.549466   
     30. B(C  23,C   2)                  1.4188         0.562072   
     31. B(H  24,C   0)                  1.0859         0.365519   
     32. B(H  25,C   1)                  1.0859         0.365536   
     33. B(H  26,C   3)                  1.0859         0.365550   
     34. B(H  27,C   4)                  1.0859         0.365530   
     35. B(H  28,C   6)                  1.0859         0.365563   
     36. B(H  29,C   7)                  1.0859         0.365563   
     37. B(H  30,C   9)                  1.0859         0.365519   
     38. B(H  31,C  10)                  1.0859         0.365536   
     39. B(H  32,C  12)                  1.0859         0.365550   
     40. B(H  33,C  13)                  1.0859         0.365530   
     41. B(H  34,C  15)                  1.0859         0.365563   
     42. B(H  35,C  16)                  1.0859         0.365562   
     43. A(C   1,C   0,C  17)          121.2371         0.432136   
     44. A(C   1,C   0,H  24)          120.1044         0.358881   
     45. A(C  17,C   0,H  24)          118.6586         0.347367   
     46. A(C   2,C   1,H  25)          118.6510         0.347367   
     47. A(C   0,C   1,H  25)          120.1096         0.358883   
     48. A(C   0,C   1,C   2)          121.2393         0.432133   
     49. A(C   1,C   2,C   3)          122.4760         0.417491   
     50. A(C   1,C   2,C  23)          118.7589         0.418284   
     51. A(C   3,C   2,C  23)          118.7650         0.418284   
     52. A(C   2,C   3,C   4)          121.2381         0.432128   
     53. A(C   2,C   3,H  26)          118.6415         0.347370   
     54. A(C   4,C   3,H  26)          120.1204         0.358882   
     55. A(C   5,C   4,H  27)          118.6547         0.347368   
     56. A(C   3,C   4,C   5)          121.2322         0.432130   
     57. A(C   3,C   4,H  27)          120.1130         0.358878   
     58. A(C   4,C   5,C   6)          122.4713         0.417491   
     59. A(C   6,C   5,C  22)          118.7611         0.418280   
     60. A(C   4,C   5,C  22)          118.7676         0.418285   
     61. A(C   5,C   6,C   7)          121.2373         0.432134   
     62. A(C   7,C   6,H  28)          120.1134         0.358891   
     63. A(C   5,C   6,H  28)          118.6492         0.347370   
     64. A(C   8,C   7,H  29)          118.6516         0.347372   
     65. A(C   6,C   7,H  29)          120.1104         0.358891   
     66. A(C   6,C   7,C   8)          121.2380         0.432137   
     67. A(C   7,C   8,C  21)          118.7626         0.418279   
     68. A(C   7,C   8,C   9)          122.4747         0.417494   
     69. A(C   9,C   8,C  21)          118.7626         0.418282   
     70. A(C   8,C   9,H  30)          118.6586         0.347367   
     71. A(C  10,C   9,H  30)          120.1044         0.358881   
     72. A(C   8,C   9,C  10)          121.2371         0.432136   
     73. A(C   9,C  10,H  31)          120.1096         0.358883   
     74. A(C   9,C  10,C  11)          121.2393         0.432133   
     75. A(C  11,C  10,H  31)          118.6510         0.347367   
     76. A(C  12,C  11,C  20)          118.7650         0.418284   
     77. A(C  10,C  11,C  20)          118.7590         0.418284   
     78. A(C  10,C  11,C  12)          122.4760         0.417491   
     79. A(C  11,C  12,C  13)          121.2381         0.432128   
     80. A(C  13,C  12,H  32)          120.1204         0.358882   
     81. A(C  11,C  12,H  32)          118.6415         0.347370   
     82. A(C  12,C  13,C  14)          121.2322         0.432130   
     83. A(C  14,C  13,H  33)          118.6548         0.347368   
     84. A(C  12,C  13,H  33)          120.1130         0.358878   
     85. A(C  13,C  14,C  15)          122.4713         0.417491   
     86. A(C  15,C  14,C  19)          118.7611         0.418280   
     87. A(C  13,C  14,C  19)          118.7676         0.418285   
     88. A(C  14,C  15,C  16)          121.2373         0.432134   
     89. A(C  16,C  15,H  34)          120.1134         0.358891   
     90. A(C  14,C  15,H  34)          118.6492         0.347370   
     91. A(C  17,C  16,H  35)          118.6516         0.347372   
     92. A(C  15,C  16,H  35)          120.1104         0.358891   
     93. A(C  15,C  16,C  17)          121.2380         0.432137   
     94. A(C  16,C  17,C  18)          118.7626         0.418279   
     95. A(C   0,C  17,C  18)          118.7626         0.418282   
     96. A(C   0,C  17,C  16)          122.4747         0.417494   
     97. A(C  17,C  18,C  19)          119.9984         0.417385   
     98. A(C  19,C  18,C  23)          120.0033         0.415708   
     99. A(C  17,C  18,C  23)          119.9982         0.417384   
    100. A(C  18,C  19,C  20)          119.9986         0.415707   
    101. A(C  14,C  19,C  20)          119.9989         0.417386   
    102. A(C  14,C  19,C  18)          120.0025         0.417388   
    103. A(C  11,C  20,C  19)          119.9981         0.417388   
    104. A(C  19,C  20,C  21)          119.9981         0.415706   
    105. A(C  11,C  20,C  21)          120.0038         0.417389   
    106. A(C  20,C  21,C  22)          120.0033         0.415708   
    107. A(C   8,C  21,C  22)          119.9985         0.417385   
    108. A(C   8,C  21,C  20)          119.9982         0.417384   
    109. A(C  21,C  22,C  23)          119.9986         0.415707   
    110. A(C   5,C  22,C  23)          119.9989         0.417386   
    111. A(C   5,C  22,C  21)          120.0024         0.417388   
    112. A(C  18,C  23,C  22)          119.9980         0.415706   
    113. A(C   2,C  23,C  22)          119.9981         0.417388   
    114. A(C   2,C  23,C  18)          120.0038         0.417389   
    115. D(H  25,C   1,C   0,H  24)     -0.0001         0.031828   
    116. D(H  25,C   1,C   0,C  17)    180.0000         0.031828   
    117. D(C   2,C   1,C   0,H  24)    180.0000         0.031828   
    118. D(C   2,C   1,C   0,C  17)      0.0000         0.031828   
    119. D(C  23,C   2,C   1,H  25)    180.0000         0.021173   
    120. D(C  23,C   2,C   1,C   0)     -0.0000         0.021173   
    121. D(C   3,C   2,C   1,C   0)    180.0000         0.021173   
    122. D(C   3,C   2,C   1,H  25)      0.0000         0.021173   
    123. D(C   4,C   3,C   2,C  23)      0.0000         0.021173   
    124. D(H  26,C   3,C   2,C   1)     -0.0000         0.021173   
    125. D(H  26,C   3,C   2,C  23)    180.0000         0.021173   
    126. D(C   4,C   3,C   2,C   1)    180.0000         0.021173   
    127. D(H  27,C   4,C   3,H  26)      0.0000         0.031823   
    128. D(C   5,C   4,C   3,H  26)    180.0000         0.031823   
    129. D(C   5,C   4,C   3,C   2)     -0.0000         0.031823   
    130. D(H  27,C   4,C   3,C   2)    180.0000         0.031823   
    131. D(C  22,C   5,C   4,H  27)   -180.0000         0.021175   
    132. D(C   6,C   5,C   4,H  27)     -0.0000         0.021175   
    133. D(C   6,C   5,C   4,C   3)    180.0000         0.021175   
    134. D(C  22,C   5,C   4,C   3)      0.0000         0.021175   
    135. D(H  28,C   6,C   5,C  22)    180.0000         0.021172   
    136. D(C   7,C   6,C   5,C  22)     -0.0000         0.021172   
    137. D(H  28,C   6,C   5,C   4)      0.0000         0.021172   
    138. D(C   7,C   6,C   5,C   4)   -180.0000         0.021172   
    139. D(H  29,C   7,C   6,H  28)     -0.0000         0.031831   
    140. D(C   8,C   7,C   6,H  28)   -180.0000         0.031831   
    141. D(H  29,C   7,C   6,C   5)    180.0000         0.031831   
    142. D(C   8,C   7,C   6,C   5)     -0.0000         0.031831   
    143. D(C  21,C   8,C   7,C   6)      0.0000         0.021173   
    144. D(C   9,C   8,C   7,C   6)    180.0000         0.021173   
    145. D(C   9,C   8,C   7,H  29)      0.0000         0.021173   
    146. D(C  21,C   8,C   7,H  29)   -180.0000         0.021173   
    147. D(H  30,C   9,C   8,C  21)    179.9999         0.021175   
    148. D(H  30,C   9,C   8,C   7)     -0.0000         0.021175   
    149. D(C  10,C   9,C   8,C  21)     -0.0000         0.021175   
    150. D(C  10,C   9,C   8,C   7)    180.0000         0.021175   
    151. D(H  31,C  10,C   9,H  30)      0.0000         0.031828   
    152. D(H  31,C  10,C   9,C   8)    180.0000         0.031828   
    153. D(C  11,C  10,C   9,H  30)   -179.9999         0.031828   
    154. D(C  11,C  10,C   9,C   8)      0.0000         0.031828   
    155. D(C  20,C  11,C  10,H  31)   -180.0000         0.021173   
    156. D(C  20,C  11,C  10,C   9)     -0.0000         0.021173   
    157. D(C  12,C  11,C  10,H  31)      0.0001         0.021173   
    158. D(C  12,C  11,C  10,C   9)   -180.0000         0.021173   
    159. D(H  32,C  12,C  11,C  20)    180.0000         0.021173   
    160. D(H  32,C  12,C  11,C  10)     -0.0001         0.021173   
    161. D(C  13,C  12,C  11,C  20)      0.0001         0.021173   
    162. D(C  13,C  12,C  11,C  10)   -180.0000         0.021173   
    163. D(H  33,C  13,C  12,H  32)      0.0001         0.031823   
    164. D(H  33,C  13,C  12,C  11)   -180.0000         0.031823   
    165. D(C  14,C  13,C  12,H  32)   -180.0000         0.031823   
    166. D(C  14,C  13,C  12,C  11)     -0.0000         0.031823   
    167. D(C  19,C  14,C  13,H  33)   -180.0000         0.021175   
    168. D(C  19,C  14,C  13,C  12)      0.0001         0.021175   
    169. D(C  15,C  14,C  13,H  33)     -0.0001         0.021175   
    170. D(C  15,C  14,C  13,C  12)    180.0000         0.021175   
    171. D(H  34,C  15,C  14,C  19)   -180.0000         0.021172   
    172. D(C  16,C  15,C  14,C  19)     -0.0001         0.021172   
    173. D(C  16,C  15,C  14,C  13)   -180.0000         0.021172   
    174. D(H  34,C  15,C  14,C  13)      0.0001         0.021172   
    175. D(H  35,C  16,C  15,C  14)   -179.9999         0.031831   
    176. D(C  17,C  16,C  15,H  34)    180.0000         0.031831   
    177. D(C  17,C  16,C  15,C  14)      0.0000         0.031831   
    178. D(H  35,C  16,C  15,H  34)     -0.0000         0.031831   
    179. D(C  18,C  17,C  16,H  35)    180.0000         0.021173   
    180. D(C  18,C  17,C  16,C  15)     -0.0000         0.021173   
    181. D(C   0,C  17,C  16,H  35)     -0.0000         0.021173   
    182. D(C   0,C  17,C  16,C  15)   -180.0000         0.021173   
    183. D(C  18,C  17,C   0,H  24)   -179.9999         0.021175   
    184. D(C  18,C  17,C   0,C   1)      0.0000         0.021175   
    185. D(C  16,C  17,C   0,H  24)      0.0000         0.021175   
    186. D(C  16,C  17,C   0,C   1)    180.0000         0.021175   
    187. D(C  23,C  18,C  17,C  16)    180.0000         0.021644   
    188. D(C  23,C  18,C  17,C   0)     -0.0000         0.021644   
    189. D(C  19,C  18,C  17,C  16)      0.0000         0.021644   
    190. D(C  19,C  18,C  17,C   0)   -180.0000         0.021644   
    191. D(C  20,C  19,C  18,C  23)      0.0001         0.020653   
    192. D(C  20,C  19,C  18,C  17)   -180.0000         0.020653   
    193. D(C  14,C  19,C  18,C  23)    180.0000         0.020653   
    194. D(C  14,C  19,C  18,C  17)     -0.0001         0.020653   
    195. D(C  20,C  19,C  14,C  15)    180.0000         0.021646   
    196. D(C  20,C  19,C  14,C  13)     -0.0001         0.021646   
    197. D(C  18,C  19,C  14,C  15)      0.0001         0.021646   
    198. D(C  18,C  19,C  14,C  13)   -180.0000         0.021646   
    199. D(C  21,C  20,C  19,C  18)     -0.0001         0.020651   
    200. D(C  21,C  20,C  19,C  14)   -180.0000         0.020651   
    201. D(C  11,C  20,C  19,C  18)   -180.0000         0.020651   
    202. D(C  11,C  20,C  19,C  14)      0.0001         0.020651   
    203. D(C  21,C  20,C  11,C  12)    180.0000         0.021647   
    204. D(C  21,C  20,C  11,C  10)      0.0000         0.021647   
    205. D(C  19,C  20,C  11,C  12)     -0.0001         0.021647   
    206. D(C  19,C  20,C  11,C  10)    180.0000         0.021647   
    207. D(C  22,C  21,C  20,C  19)      0.0001         0.020652   
    208. D(C  22,C  21,C  20,C  11)    180.0000         0.020652   
    209. D(C   8,C  21,C  20,C  19)   -180.0000         0.020652   
    210. D(C   8,C  21,C  20,C  11)     -0.0000         0.020652   
    211. D(C  22,C  21,C   8,C   9)   -180.0000         0.021644   
    212. D(C  22,C  21,C   8,C   7)     -0.0000         0.021644   
    213. D(C  20,C  21,C   8,C   9)      0.0001         0.021644   
    214. D(C  20,C  21,C   8,C   7)   -180.0000         0.021644   
    215. D(C  23,C  22,C  21,C  20)     -0.0000         0.020653   
    216. D(C  23,C  22,C  21,C   8)    180.0000         0.020653   
    217. D(C   5,C  22,C  21,C  20)    180.0000         0.020653   
    218. D(C   5,C  22,C  21,C   8)      0.0000         0.020653   
    219. D(C  23,C  22,C   5,C   6)   -180.0000         0.021646   
    220. D(C  23,C  22,C   5,C   4)     -0.0000         0.021646   
    221. D(C  21,C  22,C   5,C   6)      0.0000         0.021646   
    222. D(C  21,C  22,C   5,C   4)    180.0000         0.021646   
    223. D(C  18,C  23,C  22,C  21)      0.0000         0.020651   
    224. D(C   2,C  23,C  22,C  21)   -180.0000         0.020651   
    225. D(C   2,C  23,C  22,C   5)      0.0000         0.020651   
    226. D(C  22,C  23,C  18,C  19)     -0.0000         0.020652   
    227. D(C  22,C  23,C  18,C  17)   -180.0000         0.020652   
    228. D(C   2,C  23,C  18,C  19)    180.0000         0.020652   
    229. D(C   2,C  23,C  18,C  17)      0.0000         0.020652   
    230. D(C  22,C  23,C   2,C   3)      0.0000         0.021647   
    231. D(C  22,C  23,C   2,C   1)   -180.0000         0.021647   
    232. D(C  18,C  23,C  22,C   5)   -180.0000         0.020651   
    233. D(C  18,C  23,C   2,C   3)    180.0000         0.021647   
    234. D(C  18,C  23,C   2,C   1)      0.0000         0.021647   
    -----------------------------------------------------------------

Number of atoms                         .... 36
Number of degrees of freedom            .... 234

         *************************************************************
         *                GEOMETRY OPTIMIZATION CYCLE   1            *
         *************************************************************
---------------------------------
CARTESIAN COORDINATES (ANGSTROEM)
---------------------------------
  C      2.467384   -2.812638   -0.000010
  C      1.290215   -3.512014   -0.000041
  C      0.035458   -2.843572   -0.000117
  C     -1.202188   -3.543187   -0.000151
  C     -2.396482   -2.873437   -0.000224
  C     -2.444831   -1.452569   -0.000268
  C     -3.669535   -0.730519   -0.000345
  C     -3.686619    0.638615   -0.000387
  C     -2.480332    1.391010   -0.000357
  C     -2.467384    2.812638   -0.000400
  C     -1.290215    3.512014   -0.000369
  C     -0.035458    2.843572   -0.000293
  C      1.202188    3.543187   -0.000259
  C      2.396482    2.873437   -0.000186
  C      2.444831    1.452569   -0.000140
  C      3.669535    0.730519   -0.000064
  C      3.686619   -0.638615   -0.000022
  C      2.480332   -1.391010   -0.000052
  C      1.242835   -0.697002   -0.000128
  C      1.225078    0.727858   -0.000173
  C     -0.017789    1.424883   -0.000248
  C     -1.242835    0.697002   -0.000281
  C     -1.225078   -0.727858   -0.000237
  C      0.017789   -1.424883   -0.000161
  H      3.415501   -3.342097    0.000049
  H      1.301693   -4.597875   -0.000007
  H     -1.186323   -4.628982   -0.000118
  H     -3.331149   -3.426278   -0.000249
  H     -4.602005   -1.287008   -0.000369
  H     -4.632714    1.171613   -0.000446
  H     -3.415501    3.342097   -0.000460
  H     -1.301693    4.597875   -0.000403
  H      1.186323    4.628982   -0.000293
  H      3.331149    3.426278   -0.000160
  H      4.602005    1.287008   -0.000039
  H      4.632714   -1.171613    0.000037

----------------------------
CARTESIAN COORDINATES (A.U.)
----------------------------
  NO LB      ZA    FRAG     MASS         X           Y           Z
   0 C     6.0000    0    12.011    4.662680   -5.315115   -0.000018
   1 C     6.0000    0    12.011    2.438153   -6.636744   -0.000077
   2 C     6.0000    0    12.011    0.067006   -5.373572   -0.000221
   3 C     6.0000    0    12.011   -2.271805   -6.695653   -0.000285
   4 C     6.0000    0    12.011   -4.528695   -5.430010   -0.000423
   5 C     6.0000    0    12.011   -4.620062   -2.744958   -0.000507
   6 C     6.0000    0    12.011   -6.934415   -1.380480   -0.000651
   7 C     6.0000    0    12.011   -6.966701    1.206807   -0.000732
   8 C     6.0000    0    12.011   -4.687147    2.628628   -0.000674
   9 C     6.0000    0    12.011   -4.662680    5.315116   -0.000756
  10 C     6.0000    0    12.011   -2.438153    6.636744   -0.000697
  11 C     6.0000    0    12.011   -0.067006    5.373572   -0.000553
  12 C     6.0000    0    12.011    2.271805    6.695653   -0.000489
  13 C     6.0000    0    12.011    4.528695    5.430010   -0.000351
  14 C     6.0000    0    12.011    4.620062    2.744958   -0.000265
  15 C     6.0000    0    12.011    6.934416    1.380480   -0.000121
  16 C     6.0000    0    12.011    6.966701   -1.206807   -0.000041
  17 C     6.0000    0    12.011    4.687147   -2.628628   -0.000099
  18 C     6.0000    0    12.011    2.348619   -1.317143   -0.000242
  19 C     6.0000    0    12.011    2.315062    1.375453   -0.000326
  20 C     6.0000    0    12.011   -0.033617    2.692639   -0.000469
  21 C     6.0000    0    12.011   -2.348619    1.317143   -0.000531
  22 C     6.0000    0    12.011   -2.315062   -1.375453   -0.000447
  23 C     6.0000    0    12.011    0.033617   -2.692639   -0.000303
  24 H     1.0000    0     1.008    6.454362   -6.315648    0.000093
  25 H     1.0000    0     1.008    2.459844   -8.688724   -0.000014
  26 H     1.0000    0     1.008   -2.241826   -8.747509   -0.000222
  27 H     1.0000    0     1.008   -6.294959   -6.474728   -0.000470
  28 H     1.0000    0     1.008   -8.696530   -2.432093   -0.000697
  29 H     1.0000    0     1.008   -8.754561    2.214028   -0.000843
  30 H     1.0000    0     1.008   -6.454362    6.315648   -0.000868
  31 H     1.0000    0     1.008   -2.459843    8.688724   -0.000762
  32 H     1.0000    0     1.008    2.241825    8.747509   -0.000554
  33 H     1.0000    0     1.008    6.294959    6.474728   -0.000303
  34 H     1.0000    0     1.008    8.696530    2.432093   -0.000074
  35 H     1.0000    0     1.008    8.754561   -2.214028    0.000070

--------------------------------
INTERNAL COORDINATES (ANGSTROEM)
--------------------------------
 C      0   0   0     0.000000000000     0.00000000     0.00000000
 C      1   0   0     1.369252838631     0.00000000     0.00000000
 C      2   1   0     1.421699613037   121.23934451     0.00000000
 C      3   2   1     1.421699310472   122.47602878   179.99999384
 C      4   3   2     1.369271353295   121.23809940   179.99996920
 C      5   4   3     1.421690492297   121.23223782     0.00000000
 C      6   5   4     1.421708533762   122.47131349   179.99998997
 C      7   6   5     1.369239970941   121.23732514   180.00004597
 C      8   7   6     1.421699123288   121.23802353     0.00000000
 C      9   8   7     1.421687019675   122.47474631   179.99997879
 C     10   9   8     1.369252837559   121.23705080   179.99998485
 C     11  10   9     1.421699614455   121.23934504     0.00000000
 C     12  11  10     1.421699295760   122.47601808   180.00002024
 C     13  12  11     1.369271342206   121.23809668   180.00002033
 C     14  13  12     1.421690431479   121.23224072     0.00000000
 C     15  14  13     1.421708563484   122.47131429   179.99998396
 C     16  15  14     1.369239964802   121.23731913   180.00000490
 C      1   2   3     1.421687022621   121.23705926     0.00000000
 C     18   1   2     1.418817826341   118.76261642     0.00000000
 C     15  14  13     1.418803939195   118.76756145     0.00000000
 C     12  11  10     1.418798562461   118.75895431     0.00000000
 C      9   8   7     1.418817828334   118.76262716     0.00000000
 C      6   5   4     1.418803897077   118.76756270     0.00000000
 C      3   2   1     1.418798555786   118.75894913     0.00000000
 H      1   2   3     1.085933936912   120.10435872   179.99998331
 H      2   1   3     1.085921643279   120.10963583   179.99996250
 H      4   3   2     1.085910932501   118.64148585     0.00000000
 H      5   4   3     1.085925982650   120.11301389   179.99999791
 H      7   6   5     1.085901531545   118.64924856     0.00000000
 H      8   7   6     1.085901672116   120.11038192   179.99996149
 H     10   9   8     1.085933855985   118.65857629     0.00000000
 H     11  10   9     1.085921544855   120.10963710   179.99999344
 H     13  12  11     1.085910946553   118.64148522     0.00000000
 H     14  13  12     1.085925983426   120.11300815   180.00000352
 H     16  15  14     1.085901543322   118.64924127     0.00000000
 H     17  16  15     1.085901773698   120.11038419   180.00005489

---------------------------
INTERNAL COORDINATES (A.U.)
---------------------------
 C      0   0   0     0.000000000000     0.00000000     0.00000000
 C      1   0   0     2.587512873107     0.00000000     0.00000000
 C      2   1   0     2.686622913342   121.23934451     0.00000000
 C      3   2   1     2.686622341576   122.47602878   179.99999384
 C      4   3   2     2.587547860751   121.23809940   179.99996920
 C      5   4   3     2.686605677642   121.23223782     0.00000000
 C      6   5   4     2.686639771069   122.47131349   179.99998997
 C      7   6   5     2.587488556696   121.23732514   180.00004597
 C      8   7   6     2.686621987849   121.23802353     0.00000000
 C      9   8   7     2.686599115336   122.47474631   179.99997879
 C     10   9   8     2.587512871082   121.23705080   179.99998485
 C     11  10   9     2.686622916022   121.23934504     0.00000000
 C     12  11  10     2.686622313774   122.47601808   180.00002024
 C     13  12  11     2.587547839796   121.23809668   180.00002033
 C     14  13  12     2.686605562711   121.23224072     0.00000000
 C     15  14  13     2.686639827235   122.47131429   179.99998396
 C     16  15  14     2.587488545096   121.23731913   180.00000490
 C      1   2   3     2.686599120904   121.23705926     0.00000000
 C     18   1   2     2.681177125710   118.76261642     0.00000000
 C     15  14  13     2.681150882807   118.76756145     0.00000000
 C     12  11  10     2.681140722253   118.75895431     0.00000000
 C      9   8   7     2.681177129476   118.76262716     0.00000000
 C      6   5   4     2.681150803215   118.76756270     0.00000000
 C      3   2   1     2.681140709638   118.75894913     0.00000000
 H      1   2   3     2.052117740295   120.10435872   179.99998331
 H      2   1   3     2.052094508695   120.10963583   179.99996250
 H      4   3   2     2.052074268258   118.64148585     0.00000000
 H      5   4   3     2.052102708917   120.11301389   179.99999791
 H      7   6   5     2.052056503026   118.64924856     0.00000000
 H      8   7   6     2.052056768666   120.11038192   179.99996149
 H     10   9   8     2.052117587364   118.65857629     0.00000000
 H     11  10   9     2.052094322701   120.10963710   179.99999344
 H     13  12  11     2.052074294813   118.64148522     0.00000000
 H     14  13  12     2.052102710384   120.11300815   180.00000352
 H     16  15  14     2.052056525282   118.64924127     0.00000000
 H     17  16  15     2.052056960628   120.11038419   180.00005489

---------------------
BASIS SET INFORMATION
---------------------
There are 2 groups of distinct atoms

 Group   1 Type C   : 11s6p2d1f contracted to 5s3p2d1f pattern {62111/411/11/1}
 Group   2 Type H   : 5s1p contracted to 3s1p pattern {311/1}

Atom   0C    basis set group =>   1
Atom   1C    basis set group =>   1
Atom   2C    basis set group =>   1
Atom   3C    basis set group =>   1
Atom   4C    basis set group =>   1
Atom   5C    basis set group =>   1
Atom   6C    basis set group =>   1
Atom   7C    basis set group =>   1
Atom   8C    basis set group =>   1
Atom   9C    basis set group =>   1
Atom  10C    basis set group =>   1
Atom  11C    basis set group =>   1
Atom  12C    basis set group =>   1
Atom  13C    basis set group =>   1
Atom  14C    basis set group =>   1
Atom  15C    basis set group =>   1
Atom  16C    basis set group =>   1
Atom  17C    basis set group =>   1
Atom  18C    basis set group =>   1
Atom  19C    basis set group =>   1
Atom  20C    basis set group =>   1
Atom  21C    basis set group =>   1
Atom  22C    basis set group =>   1
Atom  23C    basis set group =>   1
Atom  24H    basis set group =>   2
Atom  25H    basis set group =>   2
Atom  26H    basis set group =>   2
Atom  27H    basis set group =>   2
Atom  28H    basis set group =>   2
Atom  29H    basis set group =>   2
Atom  30H    basis set group =>   2
Atom  31H    basis set group =>   2
Atom  32H    basis set group =>   2
Atom  33H    basis set group =>   2
Atom  34H    basis set group =>   2
Atom  35H    basis set group =>   2
---------------------------------
AUXILIARY/J BASIS SET INFORMATION
---------------------------------
There are 2 groups of distinct atoms

 Group   1 Type C   : 12s5p4d2f1g contracted to 6s4p3d1f1g pattern {711111/2111/211/2/1}
 Group   2 Type H   : 5s2p1d contracted to 3s1p1d pattern {311/2/1}

Atom   0C    basis set group =>   1
Atom   1C    basis set group =>   1
Atom   2C    basis set group =>   1
Atom   3C    basis set group =>   1
Atom   4C    basis set group =>   1
Atom   5C    basis set group =>   1
Atom   6C    basis set group =>   1
Atom   7C    basis set group =>   1
Atom   8C    basis set group =>   1
Atom   9C    basis set group =>   1
Atom  10C    basis set group =>   1
Atom  11C    basis set group =>   1
Atom  12C    basis set group =>   1
Atom  13C    basis set group =>   1
Atom  14C    basis set group =>   1
Atom  15C    basis set group =>   1
Atom  16C    basis set group =>   1
Atom  17C    basis set group =>   1
Atom  18C    basis set group =>   1
Atom  19C    basis set group =>   1
Atom  20C    basis set group =>   1
Atom  21C    basis set group =>   1
Atom  22C    basis set group =>   1
Atom  23C    basis set group =>   1
Atom  24H    basis set group =>   2
Atom  25H    basis set group =>   2
Atom  26H    basis set group =>   2
Atom  27H    basis set group =>   2
Atom  28H    basis set group =>   2
Atom  29H    basis set group =>   2
Atom  30H    basis set group =>   2
Atom  31H    basis set group =>   2
Atom  32H    basis set group =>   2
Atom  33H    basis set group =>   2
Atom  34H    basis set group =>   2
Atom  35H    basis set group =>   2


           ************************************************************
           *        Program running with 2 parallel MPI-processes     *
           *              working on a common directory               *
           ************************************************************
------------------------------------------------------------------------------
                           ORCA GTO INTEGRAL CALCULATION
                           -- RI-GTO INTEGRALS CHOSEN --
------------------------------------------------------------------------------
------------------------------------------------------------------------------
                   ___                                                        
                  /   \      - P O W E R E D   B Y -                         
                 /     \                                                     
                 |  |  |   _    _      __       _____    __    __             
                 |  |  |  | |  | |    /  \     |  _  \  |  |  /  |          
                  \  \/   | |  | |   /    \    | | | |  |  | /  /          
                 / \  \   | |__| |  /  /\  \   | |_| |  |  |/  /          
                |  |  |   |  __  | /  /__\  \  |    /   |      \           
                |  |  |   | |  | | |   __   |  |    \   |  |\   \          
                \     /   | |  | | |  |  |  |  | |\  \  |  | \   \       
                 \___/    |_|  |_| |__|  |__|  |_| \__\ |__|  \__/        
                                                                              
                      - O R C A' S   B I G   F R I E N D -                    
                                      &                                       
                       - I N T E G R A L  F E E D E R -                       
                                                                              
 v1 FN, 2020, v2 2021                                                         
------------------------------------------------------------------------------


Reading SHARK input file coronene_pristine.SHARKINP.tmp ... ok
----------------------
SHARK INTEGRAL PACKAGE
----------------------

Number of atoms                             ...     36
Number of basis functions                   ...    816
Number of shells                            ...    312
Maximum angular momentum                    ...      3
Integral batch strategy                     ... SHARK/LIBINT Hybrid
RI-J (if used) integral strategy            ... SPLIT-RIJ (Revised 2003 algorithm where possible)
Printlevel                                  ...      1
Contraction scheme used                     ... SEGMENTED contraction
Coulomb Range Separation                    ... NOT USED
Exchange Range Separation                   ... NOT USED
Finite Nucleus Model                        ... NOT USED
Auxiliary Coulomb fitting basis             ... AVAILABLE
   # of basis functions in Aux-J            ...   1308
   # of shells in Aux-J                     ...    420
   Maximum angular momentum in Aux-J        ...      4
Auxiliary J/K fitting basis                 ... NOT available
Auxiliary Correlation fitting basis         ... NOT available
Auxiliary 'external' fitting basis          ... NOT available
Integral threshold                          ...     2.500000e-11
Primitive cut-off                           ...     2.500000e-12
Primitive pair pre-selection threshold      ...     2.500000e-12

Calculating pre-screening integrals         ... done (  0.2 sec) Dimension = 312
Organizing shell pair data                  ... done ( 22.2 sec)
Shell pair information
Total number of shell pairs                 ...     48828
Shell pairs after pre-screening             ...     37246
Total number of primitive shell pairs       ...    153192
Primitive shell pairs kept                  ...     78308
          la=0 lb=0:   8703 shell pairs
          la=1 lb=0:  10314 shell pairs
          la=1 lb=1:   3041 shell pairs
          la=2 lb=0:   5574 shell pairs
          la=2 lb=1:   3330 shell pairs
          la=2 lb=2:    927 shell pairs
          la=3 lb=0:   2634 shell pairs
          la=3 lb=1:   1592 shell pairs
          la=3 lb=2:    894 shell pairs
          la=3 lb=3:    237 shell pairs

Calculating one electron integrals          ... done (  0.1 sec)
Calculating RI/J V-Matrix + Cholesky decomp.... done (  0.2 sec)
Calculating Nuclear repulsion               ... done (  0.0 sec) ENN=   1833.432103913378 Eh

SHARK setup successfully completed in  24.0 seconds

Maximum memory used throughout the entire GTOINT-calculation: 65.8 MB


           ************************************************************
           *        Program running with 2 parallel MPI-processes     *
           *              working on a common directory               *
           ************************************************************
-------------------------------------------------------------------------------
                                 ORCA SCF
-------------------------------------------------------------------------------

------------
SCF SETTINGS
------------
Hamiltonian:
 Density Functional     Method          .... DFT(GTOs)
 Exchange Functional    Exchange        .... M062X
 Correlation Functional Correlation     .... M062X
 Gradients option       PostSCFGGA      .... off
 Hybrid DFT is turned on
   Fraction HF Exchange ScalHFX         ....  0.540000
   Scaling of DF-GGA-X  ScalDFX         ....  0.460000
   Scaling of DF-GGA-C  ScalDFC         ....  1.000000
   Scaling of DF-LDA-C  ScalLDAC        ....  1.000000
   Perturbative correction              ....  0.000000
   Density functional embedding theory  .... OFF
 RI-approximation to the Coulomb term is turned on
   Number of AuxJ basis functions       .... 1308
   RIJ-COSX (HFX calculated with COS-X)).... on


General Settings:
 Integral files         IntName         .... coronene_pristine
 Hartree-Fock type      HFTyp           .... RHF
 Total Charge           Charge          ....    0
 Multiplicity           Mult            ....    1
 Number of Electrons    NEL             ....  156
 Basis Dimension        Dim             ....  816
 Nuclear Repulsion      ENuc            ....   1833.4321039134 Eh

Convergence Acceleration:
 DIIS                   CNVDIIS         .... on
   Start iteration      DIISMaxIt       ....    12
   Startup error        DIISStart       ....  0.200000
   # of expansion vecs  DIISMaxEq       ....     5
   Bias factor          DIISBfac        ....   1.050
   Max. coefficient     DIISMaxC        ....  10.000
 Trust-Rad. Augm. Hess. CNVTRAH         .... auto
   Auto Start mean grad. ratio tolernc. ....  1.125000
   Auto Start start iteration           ....    20
   Auto Start num. interpolation iter.  ....    10
   Max. Number of Micro iterations      ....    16
   Max. Number of Macro iterations      .... Maxiter - #DIIS iter
   Number of Davidson start vectors     ....     2
   Converg. threshold I  (grad. norm)   ....   1.000e-05
   Converg. threshold II (energy diff.) ....   1.000e-08
   Grad. Scal. Fac. for Micro threshold ....   0.100
   Minimum threshold for Micro iter.    ....   0.010
   NR start threshold (gradient norm)   ....   0.001
   Initial trust radius                 ....   0.400
   Minimum AH scaling param. (alpha)    ....   1.000
   Maximum AH scaling param. (alpha)    .... 1000.000
   Orbital update algorithm             .... Taylor
   White noise on init. David. guess    .... on
   Maximum white noise                  ....   0.010
   Quad. conv. algorithm                .... NR
 SOSCF                  CNVSOSCF        .... on
   Start iteration      SOSCFMaxIt      ....   150
   Startup grad/error   SOSCFStart      ....  0.003300
 Level Shifting         CNVShift        .... on
   Level shift para.    LevelShift      ....    0.2500
   Turn off err/grad.   ShiftErr        ....    0.0010
 Zerner damping         CNVZerner       .... off
 Static damping         CNVDamp         .... on
   Fraction old density DampFac         ....    0.7000
   Max. Damping (<1)    DampMax         ....    0.9800
   Min. Damping (>=0)   DampMin         ....    0.0000
   Turn off err/grad.   DampErr         ....    0.1000
 Fernandez-Rico         CNVRico         .... off

SCF Procedure:
 Maximum # iterations   MaxIter         ....   125
 SCF integral mode      SCFMode         .... Direct
   Integral package                     .... SHARK and LIBINT hybrid scheme
 Reset frequency        DirectResetFreq ....    20
 Integral Threshold     Thresh          ....  2.500e-11 Eh
 Primitive CutOff       TCut            ....  2.500e-12 Eh

Convergence Tolerance:
 Convergence Check Mode ConvCheckMode   .... Total+1el-Energy
 Convergence forced     ConvForced      .... 0
 Energy Change          TolE            ....  1.000e-08 Eh
 1-El. energy change                    ....  1.000e-05 Eh
 Orbital Gradient       TolG            ....  1.000e-05
 Orbital Rotation angle TolX            ....  1.000e-05
 DIIS Error             TolErr          ....  5.000e-07


Diagonalization of the overlap matrix:
Smallest eigenvalue                        ... 6.177e-07
Time for diagonalization                   ...    0.069 sec
Threshold for overlap eigenvalues          ... 1.000e-08
Number of eigenvalues below threshold      ... 0
Time for construction of square roots      ...    0.053 sec
Total time needed                          ...    0.124 sec

Time for model grid setup =    0.609 sec

------------------------------
INITIAL GUESS: MODEL POTENTIAL
------------------------------
Loading Hartree-Fock densities                     ... done
Calculating cut-offs                               ... done
Initializing the effective Hamiltonian             ... done
Setting up the integral package (SHARK)            ... done
Starting the Coulomb interaction                   ... done (   1.6 sec)
Reading the grid                                   ... done
Mapping shells                                     ... done
Starting the XC term evaluation                    ... done (   1.3 sec)
  promolecular density results
     # of electrons  =    155.981872212
     EX              =   -126.415295976
     EC              =     -5.284745277
     EX+EC           =   -131.700041253
Transforming the Hamiltonian                       ... done (   0.0 sec)
Diagonalizing the Hamiltonian                      ... done (   0.1 sec)
Back transforming the eigenvectors                 ... done (   0.0 sec)
Now organizing SCF variables                       ... done
                      ------------------
                      INITIAL GUESS DONE (   3.7 sec)
                      ------------------
-------------------
DFT GRID GENERATION
-------------------

General Integration Accuracy     IntAcc      ... 4.388
Radial Grid Type                 RadialGrid  ... OptM3 with GC (2021)
Angular Grid (max. ang.)         AngularGrid ... 4 (Lebedev-302)
Angular grid pruning method      GridPruning ... 4 (adaptive)
Weight generation scheme         WeightScheme... Becke
Basis function cutoff            BFCut       ... 1.0000e-11
Integration weight cutoff        WCut        ... 1.0000e-14
Angular grids for H and He will be reduced by one unit
Partially contracted basis set               ... off
Rotationally invariant grid construction     ... off

Total number of grid points                  ...   180530
Total number of batches                      ...     2840
Average number of points per batch           ...       63
Average number of grid points per atom       ...     5015
Time for grid setup =    4.791 sec

--------------------
COSX GRID GENERATION
--------------------

GRIDX 1
-------
General Integration Accuracy     IntAcc      ... 3.816
Radial Grid Type                 RadialGrid  ... OptM3 with GC (2021)
Angular Grid (max. ang.)         AngularGrid ... 1 (Lebedev-50)
Angular grid pruning method      GridPruning ... 4 (adaptive)
Weight generation scheme         WeightScheme... Becke
Basis function cutoff            BFCut       ... 1.0000e-11
Integration weight cutoff        WCut        ... 1.0000e-14
Angular grids for H and He will be reduced by one unit
Partially contracted basis set               ... on
Rotationally invariant grid construction     ... off

Total number of grid points                  ...    22986
Total number of batches                      ...      372
Average number of points per batch           ...       61
Average number of grid points per atom       ...      639
UseSFitting                                  ... on

GRIDX 2
-------
General Integration Accuracy     IntAcc      ... 4.020
Radial Grid Type                 RadialGrid  ... OptM3 with GC (2021)
Angular Grid (max. ang.)         AngularGrid ... 2 (Lebedev-110)
Angular grid pruning method      GridPruning ... 4 (adaptive)
Weight generation scheme         WeightScheme... Becke
Basis function cutoff            BFCut       ... 1.0000e-11
Integration weight cutoff        WCut        ... 1.0000e-14
Angular grids for H and He will be reduced by one unit
Partially contracted basis set               ... on
Rotationally invariant grid construction     ... off

Total number of grid points                  ...    50504
Total number of batches                      ...      810
Average number of points per batch           ...       62
Average number of grid points per atom       ...     1403
UseSFitting                                  ... on

GRIDX 3
-------
General Integration Accuracy     IntAcc      ... 4.338
Radial Grid Type                 RadialGrid  ... OptM3 with GC (2021)
Angular Grid (max. ang.)         AngularGrid ... 3 (Lebedev-194)
Angular grid pruning method      GridPruning ... 4 (adaptive)
Weight generation scheme         WeightScheme... Becke
Basis function cutoff            BFCut       ... 1.0000e-11
Integration weight cutoff        WCut        ... 1.0000e-14
Angular grids for H and He will be reduced by one unit
Partially contracted basis set               ... on
Rotationally invariant grid construction     ... off

Total number of grid points                  ...   110954
Total number of batches                      ...     1754
Average number of points per batch           ...       63
Average number of grid points per atom       ...     3082
UseSFitting                                  ... on

Time for X-Grid setup             =    4.688 sec

--------------
SCF ITERATIONS
--------------
ITER       Energy         Delta-E        Max-DP      RMS-DP      [F,P]     Damp
               ***  Starting incremental Fock matrix formation  ***
  0   -921.4244281560   0.000000000000 0.16690500  0.00194027  0.1401608 0.7000
  1   -921.5895193580  -0.165091201948 0.14278516  0.00162350  0.0842392 0.7000
                               ***Turning on DIIS***
  2   -921.6799800662  -0.090460708186 0.36119296  0.00396855  0.0424094 0.0000
  3   -921.8269329963  -0.146952930158 0.01887590  0.00044943  0.0351907 0.0000
  4   -921.8469769314  -0.020043935081 0.00593525  0.00015303  0.0043619 0.0000
                      *** Initiating the SOSCF procedure ***
                           *** Shutting down DIIS ***
                      *** Re-Reading the Fockian *** 
                      *** Removing any level shift *** 
ITER      Energy       Delta-E        Grad      Rot      Max-DP    RMS-DP
  5   -921.84739984  -0.0004229114  0.000941  0.000941  0.002850  0.000077
               *** Restarting incremental Fock matrix formation ***
  6   -921.84703315   0.0003666921  0.000399  0.001272  0.034379  0.000367
  7   -921.84703964  -0.0000064903  0.000348  0.000785  0.009040  0.000105
  8   -921.84704476  -0.0000051220  0.000049  0.000196  0.007374  0.000084
  9   -921.84704497  -0.0000002076  0.000027  0.000127  0.002708  0.000030
 10   -921.84704502  -0.0000000484  0.000024  0.000059  0.001958  0.000022
 11   -921.84704500   0.0000000201  0.000003  0.000004  0.000168  0.000002
                  ***Gradient check signals convergence***
              ***Rediagonalizing the Fockian in SOSCF/NRSCF***

               *****************************************************
               *                     SUCCESS                       *
               *           SCF CONVERGED AFTER  12 CYCLES          *
               *****************************************************

Old exchange energy                            =    -69.619832092 Eh
New exchange energy                            =    -69.619649839 Eh
Exchange energy change after final integration =      0.000182253 Eh
Total energy after final integration           =   -921.846862756 Eh
Final COS-X integration done in                =   114.905 sec

----------------
TOTAL SCF ENERGY
----------------

Total Energy       :         -921.84686276 Eh          -25084.72842 eV

Components:
Nuclear Repulsion  :         1833.43210391 Eh           49890.22392 eV
Electronic Energy  :        -2755.27896667 Eh          -74974.95234 eV
One Electron Energy:        -4887.50812506 Eh         -132995.85746 eV
Two Electron Energy:         2132.22915839 Eh           58020.90513 eV
Max COSX asymmetry :            0.00000288 Eh               0.00008 eV

Virial components:
Potential Energy   :        -1838.73090097 Eh          -50034.41152 eV
Kinetic Energy     :          916.88403821 Eh           24949.68310 eV
Virial Ratio       :            2.00541271


DFT components:
N(Alpha)           :       78.000156017967 electrons
N(Beta)            :       78.000156017967 electrons
N(Total)           :      156.000312035933 electrons
E(XC)              :      -65.006216341073 Eh       
DFET-embed. en.    :        0.000000000000 Eh       

---------------
SCF CONVERGENCE
---------------

  Last Energy change         ...   -9.4027e-09  Tolerance :   1.0000e-08
  Last MAX-Density change    ...    1.1573e-15  Tolerance :   1.0000e-07
  Last RMS-Density change    ...    1.3624e-17  Tolerance :   5.0000e-09
  Last Orbital Gradient      ...    1.3022e-06  Tolerance :   1.0000e-05
  Last Orbital Rotation      ...    2.2382e-06  Tolerance :   1.0000e-05

             **** THE GBW FILE WAS UPDATED (coronene_pristine.gbw) ****
             **** DENSITY coronene_pristine.scfp WAS UPDATED ****
             **** ENERGY FILE WAS UPDATED (coronene_pristine.en.tmp) ****
             **** THE GBW FILE WAS UPDATED (coronene_pristine.gbw) ****
             **** DENSITY coronene_pristine.scfp WAS UPDATED ****
----------------
ORBITAL ENERGIES
----------------

  NO   OCC          E(Eh)            E(eV) 
   0   2.0000     -10.558266      -287.3050 
   1   2.0000     -10.558018      -287.2983 
   2   2.0000     -10.558018      -287.2983 
   3   2.0000     -10.557537      -287.2852 
   4   2.0000     -10.557533      -287.2851 
   5   2.0000     -10.557418      -287.2819 
   6   2.0000     -10.557042      -287.2717 
   7   2.0000     -10.557028      -287.2713 
   8   2.0000     -10.557020      -287.2711 
   9   2.0000     -10.556857      -287.2667 
  10   2.0000     -10.556853      -287.2666 
  11   2.0000     -10.556672      -287.2616 
  12   2.0000     -10.549382      -287.0633 
  13   2.0000     -10.549380      -287.0632 
  14   2.0000     -10.549372      -287.0630 
  15   2.0000     -10.549365      -287.0628 
  16   2.0000     -10.549353      -287.0625 
  17   2.0000     -10.549332      -287.0619 
  18   2.0000     -10.548476      -287.0386 
  19   2.0000     -10.548466      -287.0384 
  20   2.0000     -10.548458      -287.0381 
  21   2.0000     -10.548450      -287.0379 
  22   2.0000     -10.548439      -287.0376 
  23   2.0000     -10.548436      -287.0375 
  24   2.0000      -1.016728       -27.6666 
  25   2.0000      -0.977560       -26.6007 
  26   2.0000      -0.977553       -26.6006 
  27   2.0000      -0.927180       -25.2299 
  28   2.0000      -0.927177       -25.2298 
  29   2.0000      -0.909484       -24.7483 
  30   2.0000      -0.876069       -23.8391 
  31   2.0000      -0.860259       -23.4088 
  32   2.0000      -0.841727       -22.9045 
  33   2.0000      -0.841718       -22.9043 
  34   2.0000      -0.807094       -21.9621 
  35   2.0000      -0.807088       -21.9620 
  36   2.0000      -0.722120       -19.6499 
  37   2.0000      -0.722107       -19.6495 
  38   2.0000      -0.719396       -19.5758 
  39   2.0000      -0.719385       -19.5755 
  40   2.0000      -0.710323       -19.3289 
  41   2.0000      -0.644983       -17.5509 
  42   2.0000      -0.635381       -17.2896 
  43   2.0000      -0.618142       -16.8205 
  44   2.0000      -0.618129       -16.8201 
  45   2.0000      -0.614181       -16.7127 
  46   2.0000      -0.590792       -16.0763 
  47   2.0000      -0.548100       -14.9146 
  48   2.0000      -0.548086       -14.9142 
  49   2.0000      -0.529429       -14.4065 
  50   2.0000      -0.529401       -14.4057 
  51   2.0000      -0.527104       -14.3432 
  52   2.0000      -0.527080       -14.3426 
  53   2.0000      -0.506713       -13.7884 
  54   2.0000      -0.495718       -13.4892 
  55   2.0000      -0.488649       -13.2968 
  56   2.0000      -0.488645       -13.2967 
  57   2.0000      -0.484627       -13.1874 
  58   2.0000      -0.467164       -12.7122 
  59   2.0000      -0.467152       -12.7119 
  60   2.0000      -0.459820       -12.5123 
  61   2.0000      -0.459815       -12.5122 
  62   2.0000      -0.438112       -11.9216 
  63   2.0000      -0.437899       -11.9158 
  64   2.0000      -0.421175       -11.4608 
  65   2.0000      -0.421152       -11.4601 
  66   2.0000      -0.420407       -11.4399 
  67   2.0000      -0.398973       -10.8566 
  68   2.0000      -0.398968       -10.8565 
  69   2.0000      -0.381136       -10.3712 
  70   2.0000      -0.372690       -10.1414 
  71   2.0000      -0.372657       -10.1405 
  72   2.0000      -0.331281        -9.0146 
  73   2.0000      -0.324282        -8.8241 
  74   2.0000      -0.307419        -8.3653 
  75   2.0000      -0.307409        -8.3650 
  76   2.0000      -0.250429        -6.8145 
  77   2.0000      -0.250407        -6.8139 
  78   0.0000      -0.037978        -1.0334 
  79   0.0000      -0.037953        -1.0327 
  80   0.0000       0.005505         0.1498 
  81   0.0000       0.005509         0.1499 
  82   0.0000       0.024067         0.6549 
  83   0.0000       0.051286         1.3956 
  84   0.0000       0.079485         2.1629 
  85   0.0000       0.086689         2.3589 
  86   0.0000       0.086743         2.3604 
  87   0.0000       0.086745         2.3605 
  88   0.0000       0.098799         2.6885 
  89   0.0000       0.098813         2.6888 
  90   0.0000       0.107038         2.9127 
  91   0.0000       0.118510         3.2248 
  92   0.0000       0.118530         3.2254 
  93   0.0000       0.120348         3.2748 
  94   0.0000       0.128053         3.4845 
  95   0.0000       0.131623         3.5816 
  96   0.0000       0.131634         3.5819 
  97   0.0000       0.141322         3.8456 
  98   0.0000       0.141347         3.8463 
  99   0.0000       0.162617         4.4250 
 100   0.0000       0.162621         4.4252 
 101   0.0000       0.180896         4.9224 
 102   0.0000       0.180910         4.9228 
 103   0.0000       0.187100         5.0912 
 104   0.0000       0.189320         5.1516 
 105   0.0000       0.194204         5.2846 
 106   0.0000       0.194230         5.2853 
 107   0.0000       0.206642         5.6230 
 108   0.0000       0.216353         5.8873 
 109   0.0000       0.219019         5.9598 
 110   0.0000       0.219076         5.9614 
 111   0.0000       0.231561         6.3011 
 112   0.0000       0.237571         6.4646 
 113   0.0000       0.237608         6.4656 
 114   0.0000       0.246082         6.6962 
 115   0.0000       0.263759         7.1772 
 116   0.0000       0.263765         7.1774 
 117   0.0000       0.267035         7.2664 
 118   0.0000       0.267069         7.2673 
 119   0.0000       0.267382         7.2758 
 120   0.0000       0.270672         7.3653 
 121   0.0000       0.271165         7.3788 
 122   0.0000       0.286136         7.7862 
 123   0.0000       0.286141         7.7863 
 124   0.0000       0.290259         7.8983 
 125   0.0000       0.290294         7.8993 
 126   0.0000       0.294526         8.0145 
 127   0.0000       0.301367         8.2006 
 128   0.0000       0.301402         8.2016 
 129   0.0000       0.305438         8.3114 
 130   0.0000       0.317342         8.6353 
 131   0.0000       0.317351         8.6356 
 132   0.0000       0.322679         8.7805 
 133   0.0000       0.322717         8.7816 
 134   0.0000       0.323456         8.8017 
 135   0.0000       0.323477         8.8023 
 136   0.0000       0.333462         9.0740 
 137   0.0000       0.333481         9.0745 
 138   0.0000       0.339624         9.2416 
 139   0.0000       0.342378         9.3166 
 140   0.0000       0.358896         9.7661 
 141   0.0000       0.359342         9.7782 
 142   0.0000       0.359375         9.7791 
 143   0.0000       0.372857        10.1460 
 144   0.0000       0.372896        10.1470 
 145   0.0000       0.383996        10.4491 
 146   0.0000       0.384049        10.4505 
 147   0.0000       0.385025        10.4771 
 148   0.0000       0.386341        10.5129 
 149   0.0000       0.386365        10.5135 
 150   0.0000       0.387864        10.5543 
 151   0.0000       0.388908        10.5827 
 152   0.0000       0.391102        10.6424 
 153   0.0000       0.395924        10.7736 
 154   0.0000       0.412990        11.2380 
 155   0.0000       0.413033        11.2392 
 156   0.0000       0.421308        11.4644 
 157   0.0000       0.421322        11.4648 
 158   0.0000       0.423444        11.5225 
 159   0.0000       0.425794        11.5864 
 160   0.0000       0.425813        11.5870 
 161   0.0000       0.445630        12.1262 
 162   0.0000       0.445647        12.1267 
 163   0.0000       0.446136        12.1400 
 164   0.0000       0.446158        12.1406 
 165   0.0000       0.452691        12.3183 
 166   0.0000       0.464794        12.6477 
 167   0.0000       0.465700        12.6723 
 168   0.0000       0.469626        12.7792 
 169   0.0000       0.480829        13.0840 
 170   0.0000       0.480836        13.0842 
 171   0.0000       0.482348        13.1253 
 172   0.0000       0.483192        13.1483 
 173   0.0000       0.491131        13.3644 
 174   0.0000       0.509192        13.8558 
 175   0.0000       0.509214        13.8564 
 176   0.0000       0.517435        14.0801 
 177   0.0000       0.517464        14.0809 
 178   0.0000       0.520951        14.1758 
 179   0.0000       0.521188        14.1822 
 180   0.0000       0.523651        14.2493 
 181   0.0000       0.523653        14.2493 
 182   0.0000       0.542137        14.7523 
 183   0.0000       0.542186        14.7536 
 184   0.0000       0.549730        14.9589 
 185   0.0000       0.549740        14.9592 
 186   0.0000       0.556341        15.1388 
 187   0.0000       0.559750        15.2316 
 188   0.0000       0.576017        15.6742 
 189   0.0000       0.577918        15.7259 
 190   0.0000       0.577977        15.7276 
 191   0.0000       0.578481        15.7413 
 192   0.0000       0.578527        15.7425 
 193   0.0000       0.604555        16.4508 
 194   0.0000       0.622612        16.9421 
 195   0.0000       0.635894        17.3035 
 196   0.0000       0.635944        17.3049 
 197   0.0000       0.639514        17.4021 
 198   0.0000       0.639533        17.4026 
 199   0.0000       0.641781        17.4637 
 200   0.0000       0.641820        17.4648 
 201   0.0000       0.647184        17.6108 
 202   0.0000       0.647215        17.6116 
 203   0.0000       0.650832        17.7100 
 204   0.0000       0.669479        18.2175 
 205   0.0000       0.669486        18.2176 
 206   0.0000       0.671334        18.2679 
 207   0.0000       0.671437        18.2707 
 208   0.0000       0.681676        18.5493 
 209   0.0000       0.681727        18.5507 
 210   0.0000       0.689978        18.7753 
 211   0.0000       0.690021        18.7764 
 212   0.0000       0.691712        18.8224 
 213   0.0000       0.701401        19.0861 
 214   0.0000       0.709857        19.3162 
 215   0.0000       0.726289        19.7633 
 216   0.0000       0.729027        19.8378 
 217   0.0000       0.729087        19.8395 
 218   0.0000       0.732439        19.9307 
 219   0.0000       0.744915        20.2702 
 220   0.0000       0.744980        20.2719 
 221   0.0000       0.764678        20.8079 
 222   0.0000       0.764728        20.8093 
 223   0.0000       0.770487        20.9660 
 224   0.0000       0.770504        20.9665 
 225   0.0000       0.779929        21.2229 
 226   0.0000       0.780956        21.2509 
 227   0.0000       0.784814        21.3559 
 228   0.0000       0.784859        21.3571 
 229   0.0000       0.784974        21.3602 
 230   0.0000       0.792910        21.5762 
 231   0.0000       0.795525        21.6473 
 232   0.0000       0.795554        21.6481 
 233   0.0000       0.796596        21.6765 
 234   0.0000       0.796635        21.6775 
 235   0.0000       0.815183        22.1822 
 236   0.0000       0.815205        22.1829 
 237   0.0000       0.831688        22.6314 
 238   0.0000       0.837340        22.7852 
 239   0.0000       0.838006        22.8033 
 240   0.0000       0.840576        22.8732 
 241   0.0000       0.841736        22.9048 
 242   0.0000       0.857934        23.3456 
 243   0.0000       0.858044        23.3486 
 244   0.0000       0.866204        23.5706 
 245   0.0000       0.871680        23.7196 
 246   0.0000       0.872570        23.7438 
 247   0.0000       0.886750        24.1297 
 248   0.0000       0.886879        24.1332 
 249   0.0000       0.892402        24.2835 
 250   0.0000       0.892471        24.2854 
 251   0.0000       0.898585        24.4517 
 252   0.0000       0.904931        24.6244 
 253   0.0000       0.905007        24.6265 
 254   0.0000       0.921223        25.0678 
 255   0.0000       0.921293        25.0697 
 256   0.0000       0.928014        25.2525 
 257   0.0000       0.928046        25.2534 
 258   0.0000       0.938818        25.5465 
 259   0.0000       0.941081        25.6081 
 260   0.0000       0.953144        25.9364 
 261   0.0000       0.953153        25.9366 
 262   0.0000       0.967288        26.3213 
 263   0.0000       0.998495        27.1704 
 264   0.0000       1.002225        27.2719 
 265   0.0000       1.007188        27.4070 
 266   0.0000       1.007238        27.4083 
 267   0.0000       1.021774        27.8039 
 268   0.0000       1.021811        27.8049 
 269   0.0000       1.029898        28.0250 
 270   0.0000       1.030043        28.0289 
 271   0.0000       1.053444        28.6657 
 272   0.0000       1.053504        28.6673 
 273   0.0000       1.056756        28.7558 
 274   0.0000       1.077292        29.3146 
 275   0.0000       1.077349        29.3162 
 276   0.0000       1.083165        29.4744 
 277   0.0000       1.083269        29.4773 
 278   0.0000       1.101131        29.9633 
 279   0.0000       1.114958        30.3396 
 280   0.0000       1.120933        30.5021 
 281   0.0000       1.120944        30.5024 
 282   0.0000       1.126094        30.6426 
 283   0.0000       1.126163        30.6445 
 284   0.0000       1.133028        30.8313 
 285   0.0000       1.145118        31.1602 
 286   0.0000       1.201748        32.7012 
 287   0.0000       1.201861        32.7043 
 288   0.0000       1.213124        33.0108 
 289   0.0000       1.217792        33.1378 
 290   0.0000       1.229329        33.4518 
 291   0.0000       1.229478        33.4558 
 292   0.0000       1.241017        33.7698 
 293   0.0000       1.241093        33.7719 
 294   0.0000       1.243168        33.8283 
 295   0.0000       1.259977        34.2857 
 296   0.0000       1.260000        34.2863 
 297   0.0000       1.271281        34.5933 
 298   0.0000       1.271375        34.5959 
 299   0.0000       1.277163        34.7534 
 300   0.0000       1.282578        34.9007 
 301   0.0000       1.284035        34.9404 
 302   0.0000       1.285402        34.9776 
 303   0.0000       1.285430        34.9783 
 304   0.0000       1.290168        35.1073 
 305   0.0000       1.291349        35.1394 
 306   0.0000       1.313574        35.7442 
 307   0.0000       1.313585        35.7445 
 308   0.0000       1.331662        36.2364 
 309   0.0000       1.331700        36.2374 
 310   0.0000       1.340960        36.4894 
 311   0.0000       1.349705        36.7273 
 312   0.0000       1.364929        37.1416 
 313   0.0000       1.364979        37.1430 
 314   0.0000       1.372355        37.3437 
 315   0.0000       1.372419        37.3454 
 316   0.0000       1.372959        37.3601 
 317   0.0000       1.373001        37.3613 
 318   0.0000       1.393626        37.9225 
 319   0.0000       1.393918        37.9304 
 320   0.0000       1.393981        37.9321 
 321   0.0000       1.404107        38.2077 
 322   0.0000       1.417209        38.5642 
 323   0.0000       1.417251        38.5654 
 324   0.0000       1.440746        39.2047 
 325   0.0000       1.454951        39.5912 
 326   0.0000       1.455040        39.5936 
 327   0.0000       1.465310        39.8731 
 328   0.0000       1.465361        39.8745 
 329   0.0000       1.485233        40.4152 
 330   0.0000       1.499316        40.7985 
 331   0.0000       1.499327        40.7988 
 332   0.0000       1.507044        41.0088 
 333   0.0000       1.515619        41.2421 
 334   0.0000       1.515665        41.2433 
 335   0.0000       1.519091        41.3366 
 336   0.0000       1.519100        41.3368 
 337   0.0000       1.523036        41.4439 
 338   0.0000       1.544850        42.0375 
 339   0.0000       1.552457        42.2445 
 340   0.0000       1.552461        42.2446 
 341   0.0000       1.556543        42.3557 
 342   0.0000       1.566466        42.6257 
 343   0.0000       1.566481        42.6261 
 344   0.0000       1.569125        42.6980 
 345   0.0000       1.576663        42.9032 
 346   0.0000       1.576706        42.9043 
 347   0.0000       1.585062        43.1317 
 348   0.0000       1.597641        43.4740 
 349   0.0000       1.603391        43.6305 
 350   0.0000       1.628816        44.3224 
 351   0.0000       1.633412        44.4474 
 352   0.0000       1.633532        44.4507 
 353   0.0000       1.644938        44.7610 
 354   0.0000       1.644997        44.7626 
 355   0.0000       1.650327        44.9077 
 356   0.0000       1.657094        45.0918 
 357   0.0000       1.657128        45.0927 
 358   0.0000       1.659191        45.1489 
 359   0.0000       1.659217        45.1496 
 360   0.0000       1.659524        45.1579 
 361   0.0000       1.659691        45.1625 
 362   0.0000       1.718043        46.7503 
[...]
     94      -0.344605  -0.379091   0.237729   0.342033  -0.080670   0.211392
     95       0.000011   0.000012  -0.000008  -0.000011   0.000002  -0.000007
     96      -0.006373  -0.006577  -0.005182  -0.006008  -0.003302  -0.004099
     97       0.290863   0.288892   0.321032   0.369049   0.142909   0.233280
     98      -0.000011  -0.000011  -0.000012  -0.000013  -0.000005  -0.000009
     99       0.269475   0.279744   0.257947   0.307958   0.149618   0.211136
    100       0.157736   0.164560   0.149986   0.180136   0.089381   0.124870
    101       0.000008   0.000009   0.000008   0.000010   0.000004   0.000007
    102      -0.155020   0.040626  -0.274442  -0.028313   0.400247   0.324386
    103      -0.094586   0.023157  -0.166947  -0.018649   0.241802   0.195701
    104      -0.000004   0.000001  -0.000007  -0.000001   0.000009   0.000008
    105      -0.152758   0.005973  -0.279560  -0.059434   0.399138   0.324499
    106       0.088318  -0.005033   0.160280   0.032558  -0.228007  -0.185011
    107      -0.000009   0.000000  -0.000016  -0.000003   0.000023   0.000018


-----------
IR SPECTRUM
-----------

 Mode   freq       eps      Int      T**2         TX        TY        TZ
       cm**-1   L/(mol*cm) km/mol    a.u.
----------------------------------------------------------------------------
  6:     88.86   0.000004    0.02  0.000012  ( 0.000007 -0.000015 -0.003507)
  7:     90.20   0.000001    0.00  0.000002  ( 0.000001 -0.000008 -0.001570)
  8:    124.26   0.001382    6.98  0.003470  (-0.000021 -0.000000 -0.058907)
  9:    167.63   0.000000    0.00  0.000000  (-0.000020  0.000014  0.000001)
 10:    228.14   0.000000    0.00  0.000000  ( 0.000006 -0.000021  0.000003)
 11:    299.64   0.000000    0.00  0.000000  ( 0.000013  0.000015  0.000006)
 12:    300.54   0.000000    0.00  0.000000  ( 0.000038 -0.000029 -0.000005)
 13:    303.57   0.000000    0.00  0.000000  ( 0.000013  0.000012  0.000471)
 14:    306.43   0.000000    0.00  0.000000  ( 0.000005  0.000005 -0.000325)
 15:    371.37   0.000000    0.00  0.000000  (-0.000000  0.000001  0.000000)
 16:    371.43   0.000000    0.00  0.000000  ( 0.000002 -0.000001 -0.000001)
 17:    386.72   0.000625    3.16  0.000504  (-0.021558  0.006274 -0.000002)
 18:    387.38   0.000655    3.31  0.000528  ( 0.006198  0.022121  0.000000)
 19:    461.50   0.000000    0.00  0.000000  ( 0.000025 -0.000031  0.000003)
 20:    462.88   0.000000    0.00  0.000000  (-0.000011 -0.000011  0.000021)
 21:    481.34   0.000002    0.01  0.000002  ( 0.001228  0.000031 -0.000000)
 22:    495.43   0.000000    0.00  0.000000  ( 0.000000  0.000000 -0.000000)
 23:    498.22   0.000000    0.00  0.000000  (-0.000002  0.000002  0.000001)
 24:    498.92   0.000000    0.00  0.000000  (-0.000003 -0.000001  0.000000)
 25:    539.92   0.000000    0.00  0.000000  ( 0.000002  0.000006 -0.000311)
 26:    562.75   0.000472    2.38  0.000262  (-0.000001  0.000004  0.016172)
 27:    564.91   0.000470    2.37  0.000260  (-0.000005 -0.000009 -0.016110)
 28:    570.38   0.008216   41.52  0.004495  (-0.000000  0.000012 -0.067043)
 29:    571.37   0.000000    0.00  0.000000  ( 0.000009 -0.000192 -0.000043)
 30:    644.13   0.000000    0.00  0.000000  (-0.000005 -0.000005 -0.000001)
 31:    672.24   0.000000    0.00  0.000000  ( 0.000001  0.000052 -0.000003)
 32:    682.56   0.000000    0.00  0.000000  ( 0.000003 -0.000309 -0.000001)
 33:    689.40   0.000000    0.00  0.000000  (-0.000037 -0.000014  0.000042)
 34:    691.57   0.000000    0.00  0.000000  ( 0.000030 -0.000043 -0.000004)
 35:    692.79   0.000000    0.00  0.000000  (-0.000003 -0.000003  0.000001)
 36:    692.82   0.000000    0.00  0.000000  (-0.000000  0.000002 -0.000000)
 37:    785.07   0.000000    0.00  0.000000  ( 0.000012 -0.000011  0.000003)
 38:    788.08   0.001645    8.31  0.000651  ( 0.016101 -0.019804  0.000002)
 39:    788.35   0.001634    8.26  0.000647  ( 0.019370  0.016482  0.000000)
 40:    798.77   0.000002    0.01  0.000001  ( 0.000006  0.000004  0.000791)
 41:    800.34   0.000000    0.00  0.000000  ( 0.000004 -0.000001 -0.000258)
 42:    839.51   0.000000    0.00  0.000000  ( 0.000237 -0.000058  0.000001)
 43:    840.09   0.000010    0.05  0.000004  ( 0.000010 -0.001910 -0.000003)
 44:    860.89   0.000006    0.03  0.000002  ( 0.000005  0.000011  0.001506)
 45:    861.66   0.000002    0.01  0.000001  (-0.000002  0.000008 -0.000834)
 46:    872.45   0.000000    0.00  0.000000  ( 0.000021 -0.000023  0.000073)
 47:    873.88   0.000000    0.00  0.000000  ( 0.000031 -0.000004 -0.000074)
 48:    890.23   0.030245  152.85  0.010602  (-0.000002  0.000007 -0.102967)
 49:    945.14   0.000000    0.00  0.000000  ( 0.000005  0.000009  0.000000)
 50:    976.61   0.000000    0.00  0.000000  ( 0.000013 -0.000001  0.000230)
 51:    979.69   0.000000    0.00  0.000000  (-0.000016 -0.000182 -0.000145)
 52:    983.02   0.000000    0.00  0.000000  (-0.000008 -0.000003 -0.000058)
 53:    984.16   0.000000    0.00  0.000000  ( 0.000009  0.000014  0.000023)
 54:    992.02   0.000036    0.18  0.000011  ( 0.000015 -0.000009  0.003353)
 55:    993.32   0.000013    0.07  0.000004  ( 0.000005  0.000019 -0.002030)
 56:    999.58   0.000000    0.00  0.000000  (-0.000010 -0.000136  0.000029)
 57:   1024.08   0.000000    0.00  0.000000  (-0.000001 -0.000003  0.000002)
 58:   1024.37   0.000000    0.00  0.000000  (-0.000006  0.000006  0.000000)
 59:   1063.97   0.000000    0.00  0.000000  (-0.000004  0.000002 -0.000000)
 60:   1141.36   0.000021    0.10  0.000006  (-0.002370  0.000057 -0.000001)
 61:   1166.27   0.001696    8.57  0.000454  ( 0.016534  0.013429 -0.000001)
 62:   1166.31   0.001905    9.63  0.000510  (-0.011553  0.019399 -0.000001)
 63:   1185.40   0.000000    0.00  0.000000  (-0.000001 -0.000002 -0.000000)
 64:   1185.61   0.000000    0.00  0.000000  ( 0.000001  0.000000  0.000000)
 65:   1191.50   0.000000    0.00  0.000000  ( 0.000118  0.000279 -0.000001)
 66:   1214.14   0.000015    0.08  0.000004  ( 0.001975 -0.000082  0.000001)
 67:   1247.82   0.000134    0.68  0.000034  (-0.003530  0.004594 -0.000000)
 68:   1248.04   0.000185    0.93  0.000046  (-0.006281 -0.002599 -0.000001)
 69:   1254.96   0.000000    0.00  0.000000  (-0.000001  0.000000  0.000000)
 70:   1259.42   0.000000    0.00  0.000000  (-0.000001  0.000000  0.000000)
 71:   1260.54   0.000000    0.00  0.000000  (-0.000000  0.000001 -0.000001)
 72:   1262.21   0.000000    0.00  0.000000  (-0.000002 -0.000002 -0.000000)
 73:   1350.82   0.004221   21.33  0.000975  ( 0.030485 -0.006769  0.000002)
 74:   1351.82   0.004538   22.93  0.001048  (-0.006482 -0.031710  0.000000)
 75:   1390.79   0.000022    0.11  0.000005  ( 0.002209  0.000282  0.000000)
 76:   1402.86   0.000000    0.00  0.000000  (-0.000003  0.000003  0.000001)
 77:   1442.33   0.000000    0.00  0.000000  (-0.000000 -0.000000 -0.000000)
 78:   1443.53   0.000000    0.00  0.000000  ( 0.000001 -0.000001  0.000000)
 79:   1451.17   0.000000    0.00  0.000000  (-0.000126  0.000085 -0.000001)
 80:   1458.74   0.000008    0.04  0.000002  ( 0.000281  0.001286 -0.000000)
 81:   1459.28   0.000030    0.15  0.000006  (-0.002510  0.000214  0.000000)
 82:   1485.82   0.000000    0.00  0.000000  (-0.000003 -0.000001 -0.000001)
 83:   1486.05   0.000000    0.00  0.000000  ( 0.000001 -0.000001  0.000000)
 84:   1507.06   0.000000    0.00  0.000000  (-0.000003  0.000006  0.000000)
 85:   1507.86   0.000000    0.00  0.000000  ( 0.000003  0.000001  0.000002)
 86:   1556.70   0.000753    3.81  0.000151  ( 0.007427  0.009790  0.000000)
 87:   1556.94   0.000770    3.89  0.000154  (-0.009084  0.008476 -0.000001)
 88:   1562.92   0.000069    0.35  0.000014  ( 0.003471  0.001285  0.000000)
 89:   1598.79   0.000000    0.00  0.000000  (-0.000001 -0.000005  0.000001)
 90:   1633.71   0.000000    0.00  0.000000  (-0.000064  0.000018 -0.000000)
 91:   1675.86   0.000000    0.00  0.000000  ( 0.000003 -0.000002  0.000000)
 92:   1692.19   0.001494    7.55  0.000276  ( 0.003932  0.016128 -0.000001)
 93:   1694.20   0.001437    7.26  0.000265  (-0.015785  0.003945 -0.000001)
 94:   1699.67   0.000000    0.00  0.000000  ( 0.000007  0.000007 -0.000002)
 95:   1700.45   0.000000    0.00  0.000000  (-0.000003  0.000004 -0.000000)
 96:   3201.39   0.000000    0.00  0.000000  ( 0.000016  0.000025 -0.000000)
 97:   3201.83   0.000284    1.44  0.000028  (-0.004859 -0.002019 -0.000000)
 98:   3202.06   0.000261    1.32  0.000025  ( 0.002258 -0.004506  0.000000)
 99:   3202.51   0.000000    0.00  0.000000  ( 0.000026 -0.000034 -0.000000)
100:   3202.70   0.000008    0.04  0.000001  (-0.000665  0.000540  0.000000)
101:   3202.70   0.000000    0.00  0.000000  ( 0.000124 -0.000090 -0.000000)
102:   3218.02   0.000541    2.74  0.000052  (-0.007025  0.001773 -0.000000)
103:   3218.26   0.000000    0.00  0.000000  (-0.000019 -0.000013  0.000000)
104:   3218.80   0.000000    0.00  0.000000  ( 0.000094 -0.000035 -0.000000)
105:   3219.17   0.006756   34.14  0.000655  ( 0.002067 -0.025509  0.000001)
106:   3219.61   0.007304   36.91  0.000708  (-0.026496 -0.002427 -0.000001)
107:   3220.00   0.000000    0.00  0.000000  ( 0.000181  0.000016  0.000000)

* The epsilon (eps) is given for a Dirac delta lineshape.
** The dipole moment derivative (T) already includes vibrational overlap.

The first frequency considered to be a vibration is 6
The total number of vibrations considered is 102


--------------------------
THERMOCHEMISTRY AT 298.15K
--------------------------

Temperature         ... 298.15 K
Pressure            ... 1.00 atm
Total Mass          ... 300.36 AMU

Throughout the following assumptions are being made:
  (1) The electronic state is orbitally nondegenerate
  (2) There are no thermally accessible electronically excited states
  (3) Hindered rotations indicated by low frequency modes are not
      treated as such but are treated as vibrations and this may
      cause some error
  (4) All equations used are the standard statistical mechanics
      equations for an ideal gas
  (5) All vibrations are strictly harmonic

freq.      88.86  E(vib)   ...       0.47 
freq.      90.20  E(vib)   ...       0.47 
freq.     124.26  E(vib)   ...       0.43 
freq.     167.63  E(vib)   ...       0.38 
freq.     228.14  E(vib)   ...       0.33 
freq.     299.64  E(vib)   ...       0.26 
freq.     300.54  E(vib)   ...       0.26 
freq.     303.57  E(vib)   ...       0.26 
freq.     306.43  E(vib)   ...       0.26 
freq.     371.37  E(vib)   ...       0.21 
freq.     371.43  E(vib)   ...       0.21 
freq.     386.72  E(vib)   ...       0.20 
freq.     387.38  E(vib)   ...       0.20 
freq.     461.50  E(vib)   ...       0.16 
freq.     462.88  E(vib)   ...       0.16 
freq.     481.34  E(vib)   ...       0.15 
freq.     495.43  E(vib)   ...       0.14 
freq.     498.22  E(vib)   ...       0.14 
freq.     498.92  E(vib)   ...       0.14 
freq.     539.92  E(vib)   ...       0.12 
freq.     562.75  E(vib)   ...       0.11 
freq.     564.91  E(vib)   ...       0.11 
freq.     570.38  E(vib)   ...       0.11 
freq.     571.37  E(vib)   ...       0.11 
freq.     644.13  E(vib)   ...       0.09 
freq.     672.24  E(vib)   ...       0.08 
freq.     682.56  E(vib)   ...       0.08 
freq.     689.40  E(vib)   ...       0.07 
freq.     691.57  E(vib)   ...       0.07 
freq.     692.79  E(vib)   ...       0.07 
freq.     692.82  E(vib)   ...       0.07 
freq.     785.07  E(vib)   ...       0.05 
freq.     788.08  E(vib)   ...       0.05 
freq.     788.35  E(vib)   ...       0.05 
freq.     798.77  E(vib)   ...       0.05 
freq.     800.34  E(vib)   ...       0.05 
freq.     839.51  E(vib)   ...       0.04 
freq.     840.09  E(vib)   ...       0.04 
freq.     860.89  E(vib)   ...       0.04 
freq.     861.66  E(vib)   ...       0.04 
freq.     872.45  E(vib)   ...       0.04 
freq.     873.88  E(vib)   ...       0.04 
freq.     890.23  E(vib)   ...       0.04 
freq.     945.14  E(vib)   ...       0.03 
freq.     976.61  E(vib)   ...       0.03 
freq.     979.69  E(vib)   ...       0.03 
freq.     983.02  E(vib)   ...       0.02 
freq.     984.16  E(vib)   ...       0.02 
freq.     992.02  E(vib)   ...       0.02 
freq.     993.32  E(vib)   ...       0.02 
freq.     999.58  E(vib)   ...       0.02 
freq.    1024.08  E(vib)   ...       0.02 
freq.    1024.37  E(vib)   ...       0.02 
freq.    1063.97  E(vib)   ...       0.02 
freq.    1141.36  E(vib)   ...       0.01 
freq.    1166.27  E(vib)   ...       0.01 
freq.    1166.31  E(vib)   ...       0.01 
freq.    1185.40  E(vib)   ...       0.01 
freq.    1185.61  E(vib)   ...       0.01 
freq.    1191.50  E(vib)   ...       0.01 
freq.    1214.14  E(vib)   ...       0.01 
freq.    1247.82  E(vib)   ...       0.01 
freq.    1248.04  E(vib)   ...       0.01 
freq.    1254.96  E(vib)   ...       0.01 
freq.    1259.42  E(vib)   ...       0.01 
freq.    1260.54  E(vib)   ...       0.01 
freq.    1262.21  E(vib)   ...       0.01 
freq.    1350.82  E(vib)   ...       0.01 
freq.    1351.82  E(vib)   ...       0.01 
freq.    1390.79  E(vib)   ...       0.00 
freq.    1402.86  E(vib)   ...       0.00 
freq.    1442.33  E(vib)   ...       0.00 
freq.    1443.53  E(vib)   ...       0.00 
freq.    1451.17  E(vib)   ...       0.00 
freq.    1458.74  E(vib)   ...       0.00 
freq.    1459.28  E(vib)   ...       0.00 
freq.    1485.82  E(vib)   ...       0.00 
freq.    1486.05  E(vib)   ...       0.00 
freq.    1507.06  E(vib)   ...       0.00 
freq.    1507.86  E(vib)   ...       0.00 
freq.    1556.70  E(vib)   ...       0.00 
freq.    1556.94  E(vib)   ...       0.00 
freq.    1562.92  E(vib)   ...       0.00 
freq.    1598.79  E(vib)   ...       0.00 
freq.    1633.71  E(vib)   ...       0.00 
freq.    1675.86  E(vib)   ...       0.00 
freq.    1692.19  E(vib)   ...       0.00 
freq.    1694.20  E(vib)   ...       0.00 
freq.    1699.67  E(vib)   ...       0.00 
freq.    1700.45  E(vib)   ...       0.00 
freq.    3201.39  E(vib)   ...       0.00 
freq.    3201.83  E(vib)   ...       0.00 
freq.    3202.06  E(vib)   ...       0.00 
freq.    3202.51  E(vib)   ...       0.00 
freq.    3202.70  E(vib)   ...       0.00 
freq.    3202.70  E(vib)   ...       0.00 
freq.    3218.02  E(vib)   ...       0.00 
freq.    3218.26  E(vib)   ...       0.00 
freq.    3218.80  E(vib)   ...       0.00 
freq.    3219.17  E(vib)   ...       0.00 
freq.    3219.61  E(vib)   ...       0.00 
freq.    3220.00  E(vib)   ...       0.00 

------------
INNER ENERGY
------------

The inner energy is: U= E(el) + E(ZPE) + E(vib) + E(rot) + E(trans)
    E(el)   - is the total energy from the electronic structure calculation
              = E(kin-el) + E(nuc-el) + E(el-el) + E(nuc-nuc)
    E(ZPE)  - the the zero temperature vibrational energy from the frequency calculation
    E(vib)  - the the finite temperature correction to E(ZPE) due to population
              of excited vibrational states
    E(rot)  - is the rotational thermal energy
    E(trans)- is the translational thermal energy

Summary of contributions to the inner energy U:
Electronic energy                ...   -921.84787042 Eh
Zero point energy                ...      0.28314158 Eh     177.67 kcal/mol
Thermal vibrational correction   ...      0.01107283 Eh       6.95 kcal/mol
Thermal rotational correction    ...      0.00141627 Eh       0.89 kcal/mol
Thermal translational correction ...      0.00141627 Eh       0.89 kcal/mol
-----------------------------------------------------------------------
Total thermal energy                   -921.55082347 Eh


Summary of corrections to the electronic energy:
(perhaps to be used in another calculation)
Total thermal correction                  0.01390537 Eh       8.73 kcal/mol
Non-thermal (ZPE) correction              0.28314158 Eh     177.67 kcal/mol
-----------------------------------------------------------------------
Total correction                          0.29704695 Eh     186.40 kcal/mol


--------
ENTHALPY
--------

The enthalpy is H = U + kB*T
                kB is Boltzmann's constant
Total free energy                 ...   -921.55082347 Eh 
Thermal Enthalpy correction       ...      0.00094421 Eh       0.59 kcal/mol
-----------------------------------------------------------------------
Total Enthalpy                    ...   -921.54987926 Eh


Note: Rotational entropy computed according to Herzberg 
Infrared and Raman Spectra, Chapter V,1, Van Nostrand Reinhold, 1945 
Point Group:  C2h, Symmetry Number:   2  
Rotational constants in cm-1:     0.011239     0.011231     0.005617 

Vibrational entropy computed according to the QRRHO of S. Grimme
Chem.Eur.J. 2012 18 9955


-------
ENTROPY
-------

The entropy contributions are T*S = T*(S(el)+S(vib)+S(rot)+S(trans))
     S(el)   - electronic entropy
     S(vib)  - vibrational entropy
     S(rot)  - rotational entropy
     S(trans)- translational entropy
The entropies will be listed as multiplied by the temperature to get
units of energy

Electronic entropy                ...      0.00000000 Eh      0.00 kcal/mol
Vibrational entropy               ...      0.01745696 Eh     10.95 kcal/mol
Rotational entropy                ...      0.01554084 Eh      9.75 kcal/mol
Translational entropy             ...      0.02042887 Eh     12.82 kcal/mol
-----------------------------------------------------------------------
Final entropy term                ...      0.05342667 Eh     33.53 kcal/mol

In case the symmetry of your molecule has not been determined correctly
or in case you have a reason to use a different symmetry number we print 
out the resulting rotational entropy values for sn=1,12 :
 --------------------------------------------------------
|  sn= 1 | S(rot)=       0.01619529 Eh     10.16 kcal/mol|
|  sn= 2 | S(rot)=       0.01554084 Eh      9.75 kcal/mol|
|  sn= 3 | S(rot)=       0.01515800 Eh      9.51 kcal/mol|
|  sn= 4 | S(rot)=       0.01488638 Eh      9.34 kcal/mol|
|  sn= 5 | S(rot)=       0.01467569 Eh      9.21 kcal/mol|
|  sn= 6 | S(rot)=       0.01450355 Eh      9.10 kcal/mol|
|  sn= 7 | S(rot)=       0.01435800 Eh      9.01 kcal/mol|
|  sn= 8 | S(rot)=       0.01423192 Eh      8.93 kcal/mol|
|  sn= 9 | S(rot)=       0.01412071 Eh      8.86 kcal/mol|
|  sn=10 | S(rot)=       0.01402123 Eh      8.80 kcal/mol|
|  sn=11 | S(rot)=       0.01393124 Eh      8.74 kcal/mol|
|  sn=12 | S(rot)=       0.01384909 Eh      8.69 kcal/mol|
 --------------------------------------------------------


-------------------
GIBBS FREE ENERGY
-------------------

The Gibbs free energy is G = H - T*S

Total enthalpy                    ...   -921.54987926 Eh 
Total entropy correction          ...     -0.05342667 Eh    -33.53 kcal/mol
-----------------------------------------------------------------------
Final Gibbs free energy         ...   -921.60330593 Eh

For completeness - the Gibbs free energy minus the electronic energy
G-E(el)                           ...      0.24456449 Eh    153.47 kcal/mol


Timings for individual modules:

Sum of individual times         ...    21982.846 sec (= 366.381 min)
GTO integral calculation        ...       36.581 sec (=   0.610 min)   0.2 %
SCF iterations                  ...     2816.957 sec (=  46.949 min)  12.8 %
SCF Gradient evaluation         ...      744.834 sec (=  12.414 min)   3.4 %
Geometry relaxation             ...        2.067 sec (=   0.034 min)   0.0 %
Analytical frequency calculation...    18382.407 sec (= 306.373 min)  83.6 %
                             ****ORCA TERMINATED NORMALLY****
TOTAL RUN TIME: 0 days 6 hours 6 minutes 28 seconds 435 msec
