
                                 *****************
                                 * O   R   C   A *
                                 *****************

                                            #,                                       
                                            ###                                      
                                            ####                                     
                                            #####                                    
                                            ######                                   
                                           ########,                                 
                                     ,,################,,,,,                         
                               ,,#################################,,                 
                          ,,##########################################,,             
                       ,#########################################, ''#####,          
                    ,#############################################,,   '####,        
                  ,##################################################,,,,####,       
                ,###########''''           ''''###############################       
              ,#####''   ,,,,##########,,,,          '''####'''          '####       
            ,##' ,,,,###########################,,,                        '##       
           ' ,,###''''                  '''############,,,                           
         ,,##''                                '''############,,,,        ,,,,,,###''
      ,#''                                            '''#######################'''  
     '                                                          ''''####''''         
             ,#######,   #######,   ,#######,      ##                                
            ,#'     '#,  ##    ##  ,#'     '#,    #''#        ######   ,####,        
            ##       ##  ##   ,#'  ##            #'  '#       #        #'  '#        
            ##       ##  #######   ##           ,######,      #####,   #    #        
            '#,     ,#'  ##    ##  '#,     ,#' ,#      #,         ##   #,  ,#        
             '#######'   ##     ##  '#######'  #'      '#     #####' # '####'        



                  #######################################################
                  #                        -***-                        #
                  #          Department of theory and spectroscopy      #
                  #    Directorship and core code : Frank Neese         #
                  #        Max Planck Institute fuer Kohlenforschung    #
                  #                Kaiser Wilhelm Platz 1               #
                  #                 D-45470 Muelheim/Ruhr               #
                  #                      Germany                        #
                  #                                                     #
                  #                  All rights reserved                #
                  #                        -***-                        #
                  #######################################################



                         Program Version 5.0.4 -  RELEASE  -

 With contributions from (in alphabetic order):
   Daniel Aravena         : Magnetic Suceptibility
   Michael Atanasov       : Ab Initio Ligand Field Theory (pilot matlab implementation)
   Alexander A. Auer      : GIAO ZORA, VPT2 properties, NMR spectrum
   Ute Becker             : Parallelization
   Giovanni Bistoni       : ED, misc. LED, open-shell LED, HFLD
   Martin Brehm           : Molecular dynamics
   Dmytro Bykov           : SCF Hessian
   Vijay G. Chilkuri      : MRCI spin determinant printing, contributions to CSF-ICE
   Dipayan Datta          : RHF DLPNO-CCSD density
   Achintya Kumar Dutta   : EOM-CC, STEOM-CC
   Dmitry Ganyushin       : Spin-Orbit,Spin-Spin,Magnetic field MRCI
   Miquel Garcia          : C-PCM and meta-GGA Hessian, CC/C-PCM, Gaussian charge scheme
   Yang Guo               : DLPNO-NEVPT2, F12-NEVPT2, CIM, IAO-localization
   Andreas Hansen         : Spin unrestricted coupled pair/coupled cluster methods
   Benjamin Helmich-Paris : MC-RPA, TRAH-SCF, COSX integrals
   Lee Huntington         : MR-EOM, pCC
   Robert Izsak           : Overlap fitted RIJCOSX, COSX-SCS-MP3, EOM
   Marcus Kettner         : VPT2
   Christian Kollmar      : KDIIS, OOCD, Brueckner-CCSD(T), CCSD density, CASPT2, CASPT2-K
   Simone Kossmann        : Meta GGA functionals, TD-DFT gradient, OOMP2, MP2 Hessian
   Martin Krupicka        : Initial AUTO-CI
   Lucas Lang             : DCDCAS
   Marvin Lechner         : AUTO-CI (C++ implementation), FIC-MRCC
   Dagmar Lenk            : GEPOL surface, SMD
   Dimitrios Liakos       : Extrapolation schemes; Compound Job, initial MDCI parallelization
   Dimitrios Manganas     : Further ROCIS development; embedding schemes
   Dimitrios Pantazis     : SARC Basis sets
   Anastasios Papadopoulos: AUTO-CI, single reference methods and gradients
   Taras Petrenko         : DFT Hessian,TD-DFT gradient, ASA, ECA, R-Raman, ABS, FL, XAS/XES, NRVS
   Peter Pinski           : DLPNO-MP2, DLPNO-MP2 Gradient
   Christoph Reimann      : Effective Core Potentials
   Marius Retegan         : Local ZFS, SOC
   Christoph Riplinger    : Optimizer, TS searches, QM/MM, DLPNO-CCSD(T), (RO)-DLPNO pert. Triples
   Tobias Risthaus        : Range-separated hybrids, TD-DFT gradient, RPA, STAB
   Michael Roemelt        : Original ROCIS implementation
   Masaaki Saitow         : Open-shell DLPNO-CCSD energy and density
   Barbara Sandhoefer     : DKH picture change effects
   Avijit Sen             : IP-ROCIS
   Kantharuban Sivalingam : CASSCF convergence, NEVPT2, FIC-MRCI
   Bernardo de Souza      : ESD, SOC TD-DFT
   Georgi Stoychev        : AutoAux, RI-MP2 NMR, DLPNO-MP2 response
   Willem Van den Heuvel  : Paramagnetic NMR
   Boris Wezisla          : Elementary symmetry handling
   Frank Wennmohs         : Technical directorship


 We gratefully acknowledge several colleagues who have allowed us to
 interface, adapt or use parts of their codes:
   Stefan Grimme, W. Hujo, H. Kruse, P. Pracht,  : VdW corrections, initial TS optimization,
                  C. Bannwarth, S. Ehlert          DFT functionals, gCP, sTDA/sTD-DF
   Ed Valeev, F. Pavosevic, A. Kumar             : LibInt (2-el integral package), F12 methods
   Garnet Chan, S. Sharma, J. Yang, R. Olivares  : DMRG
   Ulf Ekstrom                                   : XCFun DFT Library
   Mihaly Kallay                                 : mrcc  (arbitrary order and MRCC methods)
   Jiri Pittner, Ondrej Demel                    : Mk-CCSD
   Frank Weinhold                                : gennbo (NPA and NBO analysis)
   Christopher J. Cramer and Donald G. Truhlar   : smd solvation model
   Lars Goerigk                                  : TD-DFT with DH, B97 family of functionals
   V. Asgeirsson, H. Jonsson                     : NEB implementation
   FAccTs GmbH                                   : IRC, NEB, NEB-TS, DLPNO-Multilevel, CI-OPT
                                                   MM, QMMM, 2- and 3-layer-ONIOM, Crystal-QMMM,
                                                   LR-CPCM, SF, NACMEs, symmetry and pop. for TD-DFT,
                                                   nearIR, NL-DFT gradient (VV10), updates on ESD,
                                                   ML-optimized integration grids
   S Lehtola, MJT Oliveira, MAL Marques          : LibXC Library
   Liviu Ungur et al                             : ANISO software


 Your calculation uses the libint2 library for the computation of 2-el integrals
 For citations please refer to: http://libint.valeyev.net

 Your ORCA version has been built with support for libXC version: 5.1.0
 For citations please refer to: https://tddft.org/programs/libxc/

 This ORCA versions uses:
   CBLAS   interface :  Fast vector & matrix operations
   LAPACKE interface :  Fast linear algebra routines
   Shared memory     :  Shared parallel matrices


XCFun DFT library Copyright 2009-2010 Ulf Ekstrom and contributors.
See http://admol.org/xcfun for more information.
This is free software; see the source code for copying conditions.
There is ABSOLUTELY NO WARRANTY; not even for MERCHANTABILITY or FITNESS FOR A PARTICULAR PURPOSE.
For details see the documentation.
Scientific users of this library should cite U. Ekstrom, L. Visscher, R. Bast, A. J. Thorvaldsen and K. Ruud;
J.Chem.Theor.Comp. 2010, DOI: 10.1021/ct100117s
XCFun Version 0.99 

================================================================================

----- Orbital basis set information -----
Your calculation utilizes the basis: def2-TZVP
   F. Weigend and R. Ahlrichs, Phys. Chem. Chem. Phys. 7, 3297 (2005).

----- AuxJ basis set information -----
Your calculation utilizes the auxiliary basis: def2/J
   F. Weigend, Phys. Chem. Chem. Phys. 8, 1057 (2006).

================================================================================
                                        WARNINGS
                       Please study these warnings very carefully!
================================================================================


WARNING: Geometry Optimization
  ===> : Switching off AutoStart
         For restart on a previous wavefunction, please use MOREAD

WARNING: Minnesota functionals are quite sensitive to the integration grid.
         see SE Wheeler, KN Houk, JCTC 2010, 6, 395,
             N Mardirossian, M Head-Gordon, JCTC 2016, 12, 4303.
         DEFGRID3 seems to be a minimum grid for reliable results with these functionals!
  ===> : Please increase the integration grid!


INFO   : the flag for use of the SHARK integral package has been found!

================================================================================
                                       INPUT FILE
================================================================================
NAME = eight_six.inp
|  1> !M062X def2-tzvp PAL4 TIGHTOPT FREQ
|  2> 
|  3> %freq
|  4> Temp 298.15,10,20,50,100,6000,8000,10000
|  5> end
|  6> 
|  7> %geom
|  8> maxiter 5000
|  9> end
| 10> 
| 11> 
| 12> 
| 13> 
| 14> 
| 15> * xyz 0 1
| 16>   C   2.45791983499341     -2.80268931379768     -0.00000793519644
| 17>   C   1.28608761308438     -3.49706883370209     -0.00003643606214
| 18>   C   0.03470547919465     -2.82650100714450     -0.00011895547508
| 19>   C   -1.19909611030651     -3.52926406052669     -0.00014738304165
| 20>   C   -2.38727532547159     -2.86387815648029     -0.00022974228995
| 21>   C   -2.43307513493588     -1.44447575303296     -0.00027036473986
| 22>   C   -3.65942351028343     -0.73056692575933     -0.00034869983218
| 23>   C   -3.68143184744779      0.63183680863156     -0.00038756598292
| 24>   C   -2.47654311552349      1.38171086633990     -0.00035715694906
| 25>   C   -2.47435650264592      2.81046534061019     -0.00039831731937
| 26>   C   -1.28561443050281      3.43802142880253     -0.00036151343355
| 27>   C   -0.02057223287027      2.83388218261706     -0.00029010794623
| 28>   C   1.21086686736911      3.53893902602452     -0.00025402239824
| 29>   C   2.39489324957599      2.86551829309080     -0.00018393811888
| 30>   C   2.43517090494280      1.44582754720977     -0.00014049013964
| 31>   C   3.65975900430544      0.72697243056351     -0.00006992784603
| 32>   C   3.67546036802878     -0.63516446298208     -0.00002698908555
| 33>   C   2.46811813995863     -1.38295180399054     -0.00005240219282
| 34>   C   1.24061543792698     -0.69496199420878     -0.00012711748511
| 35>   C   1.22474219035332      0.72698621586077     -0.00017741356338
| 36>   C   -0.01566516709535      1.42103164152461     -0.00024506128700
| 37>   C   -1.24356348643455      0.69923344199718     -0.00028346088976
| 38>   C   -1.22400277498297     -0.72338676000015     -0.00023734960533
| 39>   C   0.01693487392421     -1.41913103104816     -0.00016297130775
| 40>   H   3.40501735040542     -3.32906588787472      0.00005627444163
| 41>   H   1.29296308352502     -4.58060438188898      0.00000142672494
| 42>   H   -1.17896310310274     -4.61257131284734     -0.00011513591155
| 43>   H   -3.32129405982821     -3.41317602901623     -0.00025227227744
| 44>   H   -4.58586789409211     -1.29266910376159     -0.00037146429946
| 45>   H   -3.41518424261775      3.34878172120577     -0.00045725814046
| 46>   H   1.18854626437870      4.62103847897618     -0.00028959104089
| 47>   H   3.33130215861300      3.41052642430950     -0.00015763965944
| 48>   H   4.58800492413600      1.28586263822177     -0.00004835142171
| 49>   H   4.61660270482137     -1.17213723898180      0.00002811587814
| 50>   **                         ****END OF INPUT****
================================================================================

                       *****************************
                       * Geometry Optimization Run *
                       *****************************

Geometry optimization settings:
Update method            Update   .... BFGS
Choice of coordinates    CoordSys .... Z-matrix Internals
Initial Hessian          InHess   .... Almoef's Model

Convergence Tolerances:
Energy Change            TolE     ....  1.0000e-06 Eh
Max. Gradient            TolMAXG  ....  1.0000e-04 Eh/bohr
RMS Gradient             TolRMSG  ....  3.0000e-05 Eh/bohr
Max. Displacement        TolMAXD  ....  1.0000e-03 bohr
RMS Displacement         TolRMSD  ....  6.0000e-04 bohr
Strict Convergence                ....  False
------------------------------------------------------------------------------
                        ORCA OPTIMIZATION COORDINATE SETUP
------------------------------------------------------------------------------

The optimization will be done in new redundant internal coordinates
Making redundant internal coordinates   ...  (new redundants) done
Evaluating the initial hessian          ...  (Almloef) done
Evaluating the coordinates              ...  done
Calculating the B-matrix                .... done
Calculating the G-matrix                .... done
Diagonalizing the G-matrix              .... done
The first mode is                       ....  124
The number of degrees of freedom        ....   96

    -----------------------------------------------------------------
                    Redundant Internal Coordinates


    -----------------------------------------------------------------
         Definition                    Initial Value    Approx d2E/dq
    -----------------------------------------------------------------
      1. B(C   1,C   0)                  1.3621         0.692196   
      2. B(C   2,C   1)                  1.4197         0.560163   
      3. B(C   3,C   2)                  1.4199         0.559784   
      4. B(C   4,C   3)                  1.3618         0.692986   
      5. B(C   5,C   4)                  1.4201         0.559307   
      6. B(C   6,C   5)                  1.4190         0.561631   
      7. B(C   7,C   6)                  1.3626         0.691008   
      8. B(C   8,C   7)                  1.4192         0.561288   
      9. B(C   9,C   8)                  1.4288         0.541883   
     10. B(C  10,C   9)                  1.3442         0.739220   
     11. B(C  11,C  10)                  1.4019         0.598077   
     12. B(C  12,C  11)                  1.4190         0.561667   
     13. B(C  13,C  12)                  1.3621         0.692140   
     14. B(C  14,C  13)                  1.4203         0.559059   
     15. B(C  15,C  14)                  1.4200         0.559620   
     16. B(C  16,C  15)                  1.3622         0.691907   
     17. B(C  17,C  16)                  1.4202         0.559263   
     18. B(C  17,C   0)                  1.4198         0.560062   
     19. B(C  18,C  17)                  1.4072         0.586630   
     20. B(C  19,C  18)                  1.4220         0.555426   
     21. B(C  19,C  14)                  1.4078         0.585271   
     22. B(C  20,C  19)                  1.4214         0.556776   
     23. B(C  20,C  11)                  1.4129         0.574471   
     24. B(C  21,C  20)                  1.4243         0.550758   
     25. B(C  21,C   8)                  1.4093         0.582117   
     26. B(C  22,C  21)                  1.4228         0.553963   
     27. B(C  22,C   5)                  1.4078         0.585305   
     28. B(C  23,C  22)                  1.4227         0.554138   
     29. B(C  23,C  18)                  1.4219         0.555694   
     30. B(C  23,C   2)                  1.4075         0.585932   
     31. B(H  24,C   0)                  1.0835         0.368744   
     32. B(H  25,C   1)                  1.0836         0.368724   
     33. B(H  26,C   3)                  1.0835         0.368810   
     34. B(H  27,C   4)                  1.0836         0.368710   
     35. B(H  28,C   6)                  1.0836         0.368624   
     36. B(H  29,C   9)                  1.0839         0.368197   
     37. B(H  30,C  12)                  1.0823         0.370391   
     38. B(H  31,C  13)                  1.0835         0.368850   
     39. B(H  32,C  15)                  1.0835         0.368786   
     40. B(H  33,C  16)                  1.0836         0.368729   
     41. A(C  17,C   0,H  24)          118.6528         0.348293   
     42. A(C   1,C   0,C  17)          121.0608         0.434729   
     43. A(C   1,C   0,H  24)          120.2864         0.361028   
     44. A(C   0,C   1,H  25)          120.2857         0.361025   
     45. A(C   2,C   1,H  25)          118.5487         0.348301   
     46. A(C   0,C   1,C   2)          121.1656         0.434743   
     47. A(C   1,C   2,C  23)          118.9086         0.421943   
     48. A(C   1,C   2,C   3)          122.1494         0.418521   
     49. A(C   3,C   2,C  23)          118.9421         0.421892   
     50. A(C   2,C   3,H  26)          118.6008         0.348275   
     51. A(C   4,C   3,H  26)          120.3137         0.361109   
     52. A(C   2,C   3,C   4)          121.0855         0.434779   
     53. A(C   5,C   4,H  27)          118.6117         0.348209   
     54. A(C   3,C   4,H  27)          120.2911         0.361092   
     55. A(C   3,C   4,C   5)          121.0971         0.434712   
     56. A(C   4,C   5,C   6)          122.0536         0.418653   
     57. A(C   6,C   5,C  22)          118.9827         0.422060   
     58. A(C   4,C   5,C  22)          118.9637         0.421748   
     59. A(C   7,C   6,H  28)          120.3210         0.360902   
     60. A(C   5,C   6,H  28)          118.5480         0.348439   
     61. A(C   5,C   6,C   7)          121.1310         0.434813   
     62. A(C   6,C   7,C   8)          120.9710         0.434765   
     63. A(C   7,C   8,C   9)          121.9842         0.416254   
     64. A(C   9,C   8,C  21)          118.8777         0.418964   
     65. A(C   7,C   8,C  21)          119.1382         0.421603   
     66. A(C   8,C   9,H  29)          119.6893         0.346278   
     67. A(C  10,C   9,H  29)          122.3927         0.365012   
     68. A(C   8,C   9,C  10)          117.9180         0.437299   
     69. A(C   9,C  10,C  11)          126.6422         0.445165   
     70. A(C  12,C  11,C  20)          119.5942         0.420659   
     71. A(C  10,C  11,C  20)          115.7265         0.425408   
     72. A(C  10,C  11,C  12)          124.6793         0.423696   
     73. A(C  11,C  12,H  30)          118.6115         0.348723   
     74. A(C  11,C  12,C  13)          120.5776         0.434946   
     75. A(C  13,C  12,H  30)          120.8109         0.361297   
     76. A(C  12,C  13,H  31)          120.1705         0.361040   
     77. A(C  12,C  13,C  14)          121.2544         0.434582   
     78. A(C  14,C  13,H  31)          118.5751         0.348205   
     79. A(C  13,C  14,C  15)          122.0388         0.418352   
     80. A(C  15,C  14,C  19)          118.8814         0.421785   
     81. A(C  13,C  14,C  19)          119.0799         0.421710   
     82. A(C  14,C  15,C  16)          121.0741         0.434634   
     83. A(C  16,C  15,H  32)          120.3914         0.361009   
     84. A(C  14,C  15,H  32)          118.5345         0.348254   
     85. A(C  17,C  16,H  33)          118.5202         0.348208   
     86. A(C  15,C  16,C  17)          121.1123         0.434585   
     87. A(C  15,C  16,H  33)          120.3675         0.361000   
     88. A(C  16,C  17,C  18)          118.9576         0.421912   
     89. A(C   0,C  17,C  18)          118.8582         0.422020   
     90. A(C   0,C  17,C  16)          122.1842         0.418438   
     91. A(C  17,C  18,C  19)          119.9093         0.421394   
     92. A(C  19,C  18,C  23)          119.9773         0.417343   
     93. A(C  17,C  18,C  23)          120.1134         0.421430   
     94. A(C  18,C  19,C  20)          119.8679         0.417487   
     95. A(C  14,C  19,C  20)          120.0667         0.421402   
     96. A(C  14,C  19,C  18)          120.0654         0.421219   
     97. A(C  11,C  20,C  19)          119.4273         0.420004   
     98. A(C  19,C  20,C  21)          120.3233         0.416860   
     99. A(C  11,C  20,C  21)          120.2494         0.419190   
    100. A(C  20,C  21,C  22)          119.6606         0.416485   
    101. A(C   8,C  21,C  22)          119.7531         0.420615   
    102. A(C   8,C  21,C  20)          120.5863         0.420180   
    103. A(C  21,C  22,C  23)          120.0654         0.416938   
    104. A(C   5,C  22,C  23)          119.9106         0.421049   
    105. A(C   5,C  22,C  21)          120.0240         0.421025   
    106. A(C  18,C  23,C  22)          120.1055         0.417170   
    107. A(C   2,C  23,C  22)          120.0010         0.421129   
    108. A(C   2,C  23,C  18)          119.8934         0.421340   
    109. D(H  25,C   1,C   0,H  24)     -0.0002         0.033683   
    110. D(C   2,C   1,C   0,H  24)    179.9999         0.033683   
    111. D(H  25,C   1,C   0,C  17)   -179.9998         0.033683   
    112. D(C   2,C   1,C   0,C  17)      0.0003         0.033683   
    113. D(C  23,C   2,C   1,H  25)    179.9997         0.021494   
    114. D(C  23,C   2,C   1,C   0)     -0.0004         0.021494   
    115. D(C   3,C   2,C   1,C   0)   -179.9999         0.021494   
    116. D(C   3,C   2,C   1,H  25)      0.0003         0.021494   
    117. D(H  26,C   3,C   2,C  23)    179.9999         0.021464   
    118. D(H  26,C   3,C   2,C   1)     -0.0006         0.021464   
    119. D(C   4,C   3,C   2,C  23)      0.0007         0.021464   
    120. D(C   4,C   3,C   2,C   1)   -179.9999         0.021464   
    121. D(H  27,C   4,C   3,C   2)    179.9999         0.033766   
    122. D(H  27,C   4,C   3,H  26)      0.0007         0.033766   
    123. D(C   5,C   4,C   3,H  26)    179.9999         0.033766   
    124. D(C   5,C   4,C   3,C   2)     -0.0009         0.033766   
    125. D(C  22,C   5,C   4,H  27)    179.9998         0.021426   
    126. D(C   6,C   5,C   4,H  27)     -0.0005         0.021426   
    127. D(C  22,C   5,C   4,C   3)      0.0006         0.021426   
    128. D(C   6,C   5,C   4,C   3)   -179.9996         0.021426   
    129. D(C   7,C   6,C   5,C  22)     -0.0002         0.021611   
    130. D(H  28,C   6,C   5,C  22)   -179.9999         0.021611   
    131. D(C   7,C   6,C   5,C   4)   -180.0000         0.021611   
    132. D(H  28,C   6,C   5,C   4)      0.0004         0.021611   
    133. D(C   8,C   7,C   6,H  28)    179.9999         0.030393   
    134. D(C   8,C   7,C   6,C   5)      0.0003         0.030393   
    135. D(C  21,C   8,C   7,C   6)     -0.0001         0.019602   
    136. D(C   9,C   8,C   7,C   6)    179.9999         0.019602   
    137. D(H  29,C   9,C   8,C   7)     -0.0002         0.020068   
    138. D(C  10,C   9,C   8,C  21)     -0.0001         0.020068   
    139. D(C  10,C   9,C   8,C   7)    179.9998         0.020068   
    140. D(H  29,C   9,C   8,C  21)    179.9999         0.020068   
    141. D(C  11,C  10,C   9,H  29)   -179.9998         0.035175   
    142. D(C  11,C  10,C   9,C   8)      0.0002         0.035175   
    143. D(C  20,C  11,C  10,C   9)     -0.0004         0.022365   
    144. D(C  12,C  11,C  10,C   9)    180.0000         0.022365   
    145. D(H  30,C  12,C  11,C  20)    180.0000         0.021614   
    146. D(H  30,C  12,C  11,C  10)     -0.0004         0.021614   
    147. D(C  13,C  12,C  11,C  20)      0.0004         0.021614   
    148. D(C  13,C  12,C  11,C  10)    180.0000         0.021614   
    149. D(H  31,C  13,C  12,H  30)      0.0003         0.033677   
    150. D(H  31,C  13,C  12,C  11)    179.9999         0.033677   
    151. D(C  14,C  13,C  12,H  30)   -179.9998         0.033677   
    152. D(C  14,C  13,C  12,C  11)     -0.0002         0.033677   
    153. D(C  19,C  14,C  13,H  31)   -179.9998         0.021406   
    154. D(C  19,C  14,C  13,C  12)      0.0003         0.021406   
    155. D(C  15,C  14,C  13,H  31)     -0.0003         0.021406   
    156. D(C  15,C  14,C  13,C  12)    179.9999         0.021406   
    157. D(H  32,C  15,C  14,C  19)    179.9996         0.021451   
    158. D(H  32,C  15,C  14,C  13)      0.0000         0.021451   
    159. D(C  16,C  15,C  14,C  19)     -0.0005         0.021451   
    160. D(C  16,C  15,C  14,C  13)    179.9999         0.021451   
    161. D(H  33,C  16,C  15,H  32)     -0.0001         0.033652   
    162. D(C  17,C  16,C  15,H  32)    179.9999         0.033652   
    163. D(C  17,C  16,C  15,C  14)      0.0001         0.033652   
    164. D(H  33,C  16,C  15,C  14)   -179.9999         0.033652   
    165. D(C   0,C  17,C  16,H  33)      0.0000         0.021423   
    166. D(C   0,C  17,C  16,C  15)   -180.0000         0.021423   
    167. D(C  18,C  17,C   0,H  24)   -179.9996         0.021486   
    168. D(C  18,C  17,C   0,C   1)     -0.0000         0.021486   
    169. D(C  16,C  17,C   0,H  24)      0.0005         0.021486   
    170. D(C  18,C  17,C  16,C  15)      0.0002         0.021423   
    171. D(C  16,C  17,C   0,C   1)   -179.9999         0.021486   
    172. D(C  18,C  17,C  16,H  33)   -179.9998         0.021423   
    173. D(C  23,C  18,C  17,C  16)    179.9996         0.023669   
    174. D(C  23,C  18,C  17,C   0)     -0.0003         0.023669   
    175. D(C  19,C  18,C  17,C  16)      0.0001         0.023669   
    176. D(C  19,C  18,C  17,C   0)   -179.9998         0.023669   
    177. D(C  20,C  19,C  18,C  23)      0.0009         0.021119   
    178. D(C  20,C  19,C  18,C  17)   -179.9996         0.021119   
    179. D(C  14,C  19,C  18,C  23)    179.9999         0.021119   
    180. D(C  14,C  19,C  18,C  17)     -0.0006         0.021119   
    181. D(C  20,C  19,C  14,C  15)    179.9999         0.023554   
    182. D(C  20,C  19,C  14,C  13)     -0.0006         0.023554   
    183. D(C  18,C  19,C  14,C  15)      0.0008         0.023554   
    184. D(C  18,C  19,C  14,C  13)   -179.9996         0.023554   
    185. D(C  21,C  20,C  19,C  18)     -0.0010         0.021225   
    186. D(C  21,C  20,C  19,C  14)    180.0000         0.021225   
    187. D(C  11,C  20,C  19,C  18)    179.9998         0.021225   
    188. D(C  11,C  20,C  19,C  14)      0.0007         0.021225   
    189. D(C  21,C  20,C  11,C  12)   -179.9999         0.022654   
    190. D(C  21,C  20,C  11,C  10)      0.0005         0.022654   
    191. D(C  19,C  20,C  11,C  12)     -0.0006         0.022654   
    192. D(C  19,C  20,C  11,C  10)    179.9997         0.022654   
    193. D(C  22,C  21,C  20,C  19)      0.0008         0.020753   
    194. D(C  22,C  21,C  20,C  11)   -180.0000         0.020753   
    195. D(C   8,C  21,C  20,C  19)   -179.9997         0.020753   
    196. D(C   8,C  21,C  20,C  11)     -0.0004         0.020753   
    197. D(C  22,C  21,C   8,C   9)    179.9998         0.023289   
    198. D(C  22,C  21,C   8,C   7)     -0.0002         0.023289   
    199. D(C  20,C  21,C   8,C   9)      0.0003         0.023289   
    200. D(C  20,C  21,C   8,C   7)   -179.9997         0.023289   
    201. D(C  23,C  22,C  21,C  20)     -0.0004         0.021004   
    202. D(C  23,C  22,C  21,C   8)    180.0000         0.021004   
    203. D(C   5,C  22,C  21,C  20)    179.9998         0.021004   
    204. D(C   5,C  22,C  21,C   8)      0.0002         0.021004   
    205. D(C  23,C  22,C   5,C   6)   -179.9998         0.023557   
    206. D(C  23,C  22,C   5,C   4)     -0.0001         0.023557   
    207. D(C  21,C  22,C   5,C   6)     -0.0000         0.023557   
    208. D(C  21,C  22,C   5,C   4)    179.9997         0.023557   
    209. D(C  18,C  23,C  22,C  21)      0.0003         0.021017   
    210. D(C   2,C  23,C  22,C  21)   -179.9999         0.021017   
    211. D(C   2,C  23,C  22,C   5)     -0.0002         0.021017   
    212. D(C  22,C  23,C  18,C  19)     -0.0005         0.021140   
    213. D(C  22,C  23,C  18,C  17)    179.9999         0.021140   
    214. D(C   2,C  23,C  18,C  19)    179.9997         0.021140   
    215. D(C   2,C  23,C  18,C  17)      0.0002         0.021140   
    216. D(C  22,C  23,C   2,C   3)     -0.0001         0.023610   
    217. D(C  22,C  23,C   2,C   1)   -179.9996         0.023610   
    218. D(C  18,C  23,C  22,C   5)   -179.9999         0.021017   
    219. D(C  18,C  23,C   2,C   3)    179.9996         0.023610   
    220. D(C  18,C  23,C   2,C   1)      0.0001         0.023610   
    -----------------------------------------------------------------

Number of atoms                         .... 34
Number of degrees of freedom            .... 220

         *************************************************************
         *                GEOMETRY OPTIMIZATION CYCLE   1            *
         *************************************************************
---------------------------------
CARTESIAN COORDINATES (ANGSTROEM)
---------------------------------
  C      2.457920   -2.802689   -0.000008
  C      1.286088   -3.497069   -0.000036
  C      0.034705   -2.826501   -0.000119
  C     -1.199096   -3.529264   -0.000147
  C     -2.387275   -2.863878   -0.000230
  C     -2.433075   -1.444476   -0.000270
  C     -3.659424   -0.730567   -0.000349
  C     -3.681432    0.631837   -0.000388
  C     -2.476543    1.381711   -0.000357
  C     -2.474357    2.810465   -0.000398
  C     -1.285614    3.438021   -0.000362
  C     -0.020572    2.833882   -0.000290
  C      1.210867    3.538939   -0.000254
  C      2.394893    2.865518   -0.000184
  C      2.435171    1.445828   -0.000140
  C      3.659759    0.726972   -0.000070
  C      3.675460   -0.635164   -0.000027
  C      2.468118   -1.382952   -0.000052
  C      1.240615   -0.694962   -0.000127
  C      1.224742    0.726986   -0.000177
  C     -0.015665    1.421032   -0.000245
  C     -1.243563    0.699233   -0.000283
  C     -1.224003   -0.723387   -0.000237
  C      0.016935   -1.419131   -0.000163
  H      3.405017   -3.329066    0.000056
  H      1.292963   -4.580604    0.000001
  H     -1.178963   -4.612571   -0.000115
  H     -3.321294   -3.413176   -0.000252
  H     -4.585868   -1.292669   -0.000371
  H     -3.415184    3.348782   -0.000457
  H      1.188546    4.621038   -0.000290
  H      3.331302    3.410526   -0.000158
  H      4.588005    1.285863   -0.000048
  H      4.616603   -1.172137    0.000028

----------------------------
CARTESIAN COORDINATES (A.U.)
----------------------------
  NO LB      ZA    FRAG     MASS         X           Y           Z
   0 C     6.0000    0    12.011    4.644795   -5.296315   -0.000015
   1 C     6.0000    0    12.011    2.430353   -6.608502   -0.000069
   2 C     6.0000    0    12.011    0.065584   -5.341313   -0.000225
   3 C     6.0000    0    12.011   -2.265963   -6.669343   -0.000279
   4 C     6.0000    0    12.011   -4.511297   -5.411945   -0.000434
   5 C     6.0000    0    12.011   -4.597846   -2.729664   -0.000511
   6 C     6.0000    0    12.011   -6.915308   -1.380571   -0.000659
   7 C     6.0000    0    12.011   -6.956898    1.193999   -0.000732
   8 C     6.0000    0    12.011   -4.679988    2.611055   -0.000675
   9 C     6.0000    0    12.011   -4.675856    5.311010   -0.000753
  10 C     6.0000    0    12.011   -2.429459    6.496919   -0.000683
  11 C     6.0000    0    12.011   -0.038876    5.355261   -0.000548
  12 C     6.0000    0    12.011    2.288207    6.687626   -0.000480
  13 C     6.0000    0    12.011    4.525692    5.415045   -0.000348
  14 C     6.0000    0    12.011    4.601806    2.732218   -0.000265
  15 C     6.0000    0    12.011    6.915942    1.373779   -0.000132
  16 C     6.0000    0    12.011    6.945614   -1.200287   -0.000051
  17 C     6.0000    0    12.011    4.664067   -2.613400   -0.000099
  18 C     6.0000    0    12.011    2.344423   -1.313288   -0.000240
  19 C     6.0000    0    12.011    2.314427    1.373805   -0.000335
  20 C     6.0000    0    12.011   -0.029603    2.685361   -0.000463
  21 C     6.0000    0    12.011   -2.349994    1.321360   -0.000536
  22 C     6.0000    0    12.011   -2.313030   -1.367003   -0.000449
  23 C     6.0000    0    12.011    0.032002   -2.681769   -0.000308
  24 H     1.0000    0     1.008    6.434550   -6.291023    0.000106
  25 H     1.0000    0     1.008    2.443346   -8.656088    0.000003
  26 H     1.0000    0     1.008   -2.227917   -8.716497   -0.000218
  27 H     1.0000    0     1.008   -6.276336   -6.449968   -0.000477
  28 H     1.0000    0     1.008   -8.666034   -2.442791   -0.000702
  29 H     1.0000    0     1.008   -6.453763    6.328280   -0.000864
  30 H     1.0000    0     1.008    2.246027    8.732497   -0.000547
  31 H     1.0000    0     1.008    6.295249    6.444961   -0.000298
  32 H     1.0000    0     1.008    8.670073    2.429928   -0.000091
  33 H     1.0000    0     1.008    8.724115   -2.215018    0.000053

--------------------------------
INTERNAL COORDINATES (ANGSTROEM)
--------------------------------
 C      0   0   0     0.000000000000     0.00000000     0.00000000
 C      1   0   0     1.362113679096     0.00000000     0.00000000
 C      2   1   0     1.419724783837   121.16560922     0.00000000
 C      3   2   1     1.419909247897   122.14936829   180.00012514
 C      4   3   2     1.361803310114   121.08549338   180.00014219
 C      5   4   3     1.420141122251   121.09714964     0.00000000
 C      6   5   4     1.419012388076   122.05359964   180.00035250
 C      7   6   5     1.362581485232   121.13095823   180.00004575
 C      8   7   6     1.419178621480   120.97098694     0.00000000
 C      9   8   7     1.428756148094   121.98415257   179.99993018
 C     10   9   8     1.344222585462   117.91798224   179.99982824
 C     11  10   9     1.401897284280   126.64222024     0.00000000
 C     12  11  10     1.418995211879   124.67934702   179.99996824
 C     13  12  11     1.362135809022   120.57756794   179.99997748
 C     14  13  12     1.420261984758   121.25435076     0.00000000
 C     15  14  13     1.419988977707   122.03878309   179.99987718
 C     16  15  14     1.362227386094   121.07411591   179.99989307
 C      1   2   3     1.419774138430   121.06079764     0.00000000
 C     18   1   2     1.407157726568   118.85816447     0.00000000
 C     15  14  13     1.407789236399   119.07985977     0.00000000
 C     12  11  10     1.412859063314   115.72648181     0.00000000
 C      9   8   7     1.409260162609   119.13818147     0.00000000
 C      6   5   4     1.407773173691   118.96366889     0.00000000
 C      3   2   1     1.407482165417   118.90857994     0.00000000
 H      1   2   3     1.083543264277   120.28639352   179.99993510
 H      2   1   3     1.083557362447   120.28567582   179.99985180
 H      4   3   2     1.083494320220   118.60077089     0.00000000
 H      5   4   3     1.083567787178   120.29111832   179.99989480
 H      7   6   5     1.083631881832   118.54804936     0.00000000
 H     10   9   8     1.083947122969   119.68934415     0.00000000
 H     13  12  11     1.082329634012   118.61148842     0.00000000
 H     14  13  12     1.083464585813   120.17050164   179.99994437
 H     16  15  14     1.083512229910   118.53445959     0.00000000
 H     17  16  15     1.083553719621   120.36752368   180.00008314

---------------------------
INTERNAL COORDINATES (A.U.)
---------------------------
 C      0   0   0     0.000000000000     0.00000000     0.00000000
 C      1   0   0     2.574021816758     0.00000000     0.00000000
 C      2   1   0     2.682891026993   121.16560922     0.00000000
 C      3   2   1     2.683239613547   122.14936829   180.00012514
 C      4   3   2     2.573435304383   121.08549338   180.00014219
 C      5   4   3     2.683677792575   121.09714964     0.00000000
 C      6   5   4     2.681544794105   122.05359964   180.00035250
 C      7   6   5     2.574905842241   121.13095823   180.00004575
 C      8   7   6     2.681858929714   120.97098694     0.00000000
 C      9   8   7     2.699957832055   121.98415257   179.99993018
 C     10   9   8     2.540212549554   117.91798224   179.99982824
 C     11  10   9     2.649201935177   126.64222024     0.00000000
 C     12  11  10     2.681512335797   124.67934702   179.99996824
 C     13  12  11     2.574063636258   120.57756794   179.99997748
 C     14  13  12     2.683906189613   121.25435076     0.00000000
 C     15  14  13     2.683390281052   122.03878309   179.99987718
 C     16  15  14     2.574236691845   121.07411591   179.99989307
 C      1   2   3     2.682984293657   121.06079764     0.00000000
 C     18   1   2     2.659142730445   118.85816447     0.00000000
 C     15  14  13     2.660336111077   119.07985977     0.00000000
 C     12  11  10     2.669916695492   115.72648181     0.00000000
 C      9   8   7     2.663115758776   119.13818147     0.00000000
 C      6   5   4     2.660305756958   118.96366889     0.00000000
 C      3   2   1     2.659755831016   118.90857994     0.00000000
 H      1   2   3     2.047600023738   120.28639352   179.99993510
 H      2   1   3     2.047626665418   120.28567582   179.99985180
 H      4   3   2     2.047507532875   118.60077089     0.00000000
 H      5   4   3     2.047646365305   120.29111832   179.99989480
 H      7   6   5     2.047767486649   118.54804936     0.00000000
 H     10   9   8     2.048363206063   119.68934415     0.00000000
 H     13  12  11     2.045306594911   118.61148842     0.00000000
 H     14  13  12     2.047451342988   120.17050164   179.99994437
 H     16  15  14     2.047541377284   118.53445959     0.00000000
 H     17  16  15     2.047619781476   120.36752368   180.00008314

---------------------
BASIS SET INFORMATION
---------------------
There are 2 groups of distinct atoms

 Group   1 Type C   : 11s6p2d1f contracted to 5s3p2d1f pattern {62111/411/11/1}
 Group   2 Type H   : 5s1p contracted to 3s1p pattern {311/1}

Atom   0C    basis set group =>   1
Atom   1C    basis set group =>   1
Atom   2C    basis set group =>   1
Atom   3C    basis set group =>   1
Atom   4C    basis set group =>   1
Atom   5C    basis set group =>   1
Atom   6C    basis set group =>   1
Atom   7C    basis set group =>   1
Atom   8C    basis set group =>   1
Atom   9C    basis set group =>   1
Atom  10C    basis set group =>   1
Atom  11C    basis set group =>   1
Atom  12C    basis set group =>   1
Atom  13C    basis set group =>   1
Atom  14C    basis set group =>   1
Atom  15C    basis set group =>   1
Atom  16C    basis set group =>   1
Atom  17C    basis set group =>   1
Atom  18C    basis set group =>   1
Atom  19C    basis set group =>   1
Atom  20C    basis set group =>   1
Atom  21C    basis set group =>   1
Atom  22C    basis set group =>   1
Atom  23C    basis set group =>   1
Atom  24H    basis set group =>   2
Atom  25H    basis set group =>   2
Atom  26H    basis set group =>   2
Atom  27H    basis set group =>   2
Atom  28H    basis set group =>   2
Atom  29H    basis set group =>   2
Atom  30H    basis set group =>   2
Atom  31H    basis set group =>   2
Atom  32H    basis set group =>   2
Atom  33H    basis set group =>   2
---------------------------------
AUXILIARY/J BASIS SET INFORMATION
---------------------------------
There are 2 groups of distinct atoms

 Group   1 Type C   : 12s5p4d2f1g contracted to 6s4p3d1f1g pattern {711111/2111/211/2/1}
 Group   2 Type H   : 5s2p1d contracted to 3s1p1d pattern {311/2/1}

Atom   0C    basis set group =>   1
Atom   1C    basis set group =>   1
Atom   2C    basis set group =>   1
Atom   3C    basis set group =>   1
Atom   4C    basis set group =>   1
Atom   5C    basis set group =>   1
Atom   6C    basis set group =>   1
Atom   7C    basis set group =>   1
Atom   8C    basis set group =>   1
Atom   9C    basis set group =>   1
Atom  10C    basis set group =>   1
Atom  11C    basis set group =>   1
Atom  12C    basis set group =>   1
Atom  13C    basis set group =>   1
Atom  14C    basis set group =>   1
Atom  15C    basis set group =>   1
Atom  16C    basis set group =>   1
Atom  17C    basis set group =>   1
Atom  18C    basis set group =>   1
Atom  19C    basis set group =>   1
Atom  20C    basis set group =>   1
Atom  21C    basis set group =>   1
Atom  22C    basis set group =>   1
Atom  23C    basis set group =>   1
Atom  24H    basis set group =>   2
Atom  25H    basis set group =>   2
Atom  26H    basis set group =>   2
Atom  27H    basis set group =>   2
Atom  28H    basis set group =>   2
Atom  29H    basis set group =>   2
Atom  30H    basis set group =>   2
Atom  31H    basis set group =>   2
Atom  32H    basis set group =>   2
Atom  33H    basis set group =>   2


           ************************************************************
           *        Program running with 4 parallel MPI-processes     *
           *              working on a common directory               *
           ************************************************************
------------------------------------------------------------------------------
                           ORCA GTO INTEGRAL CALCULATION
                           -- RI-GTO INTEGRALS CHOSEN --
------------------------------------------------------------------------------
------------------------------------------------------------------------------
                   ___                                                        
                  /   \      - P O W E R E D   B Y -                         
                 /     \                                                     
                 |  |  |   _    _      __       _____    __    __             
                 |  |  |  | |  | |    /  \     |  _  \  |  |  /  |          
                  \  \/   | |  | |   /    \    | | | |  |  | /  /          
                 / \  \   | |__| |  /  /\  \   | |_| |  |  |/  /          
                |  |  |   |  __  | /  /__\  \  |    /   |      \           
                |  |  |   | |  | | |   __   |  |    \   |  |\   \          
                \     /   | |  | | |  |  |  |  | |\  \  |  | \   \       
                 \___/    |_|  |_| |__|  |__|  |_| \__\ |__|  \__/        
                                                                              
                      - O R C A' S   B I G   F R I E N D -                    
                                      &                                       
                       - I N T E G R A L  F E E D E R -                       
                                                                              
 v1 FN, 2020, v2 2021                                                         
------------------------------------------------------------------------------


Reading SHARK input file eight_six.SHARKINP.tmp ... ok
----------------------
SHARK INTEGRAL PACKAGE
----------------------

Number of atoms                             ...     34
Number of basis functions                   ...    804
Number of shells                            ...    304
Maximum angular momentum                    ...      3
Integral batch strategy                     ... SHARK/LIBINT Hybrid
RI-J (if used) integral strategy            ... SPLIT-RIJ (Revised 2003 algorithm where possible)
Printlevel                                  ...      1
Contraction scheme used                     ... SEGMENTED contraction
Coulomb Range Separation                    ... NOT USED
Exchange Range Separation                   ... NOT USED
Finite Nucleus Model                        ... NOT USED
Auxiliary Coulomb fitting basis             ... AVAILABLE
   # of basis functions in Aux-J            ...   1286
   # of shells in Aux-J                     ...    410
   Maximum angular momentum in Aux-J        ...      4
Auxiliary J/K fitting basis                 ... NOT available
Auxiliary Correlation fitting basis         ... NOT available
Auxiliary 'external' fitting basis          ... NOT available
Integral threshold                          ...     2.500000e-11
Primitive cut-off                           ...     2.500000e-12
Primitive pair pre-selection threshold      ...     2.500000e-12

Calculating pre-screening integrals         ... done (  0.1 sec) Dimension = 304
Organizing shell pair data                  ... done (  0.7 sec)
Shell pair information
Total number of shell pairs                 ...     46360
Shell pairs after pre-screening             ...     35745
Total number of primitive shell pairs       ...    146628
Primitive shell pairs kept                  ...     75602
          la=0 lb=0:   8086 shell pairs
          la=1 lb=0:   9821 shell pairs
          la=1 lb=1:   2940 shell pairs
          la=2 lb=0:   5414 shell pairs
          la=2 lb=1:   3293 shell pairs
          la=2 lb=2:    929 shell pairs
          la=3 lb=0:   2542 shell pairs
          la=3 lb=1:   1589 shell pairs
          la=3 lb=2:    894 shell pairs
          la=3 lb=3:    237 shell pairs

Calculating one electron integrals          ... done (  0.2 sec)
Calculating RI/J V-Matrix + Cholesky decomp.... done (  0.2 sec)
Calculating Nuclear repulsion               ... done (  0.0 sec) ENN=   1800.887066166740 Eh

SHARK setup successfully completed in   2.5 seconds

Maximum memory used throughout the entire GTOINT-calculation: 52.5 MB


           ************************************************************
           *        Program running with 4 parallel MPI-processes     *
           *              working on a common directory               *
           ************************************************************
-------------------------------------------------------------------------------
                                 ORCA SCF
-------------------------------------------------------------------------------

------------
SCF SETTINGS
------------
Hamiltonian:
 Density Functional     Method          .... DFT(GTOs)
 Exchange Functional    Exchange        .... M062X
 Correlation Functional Correlation     .... M062X
 Gradients option       PostSCFGGA      .... off
 Hybrid DFT is turned on
   Fraction HF Exchange ScalHFX         ....  0.540000
   Scaling of DF-GGA-X  ScalDFX         ....  0.460000
   Scaling of DF-GGA-C  ScalDFC         ....  1.000000
   Scaling of DF-LDA-C  ScalLDAC        ....  1.000000
   Perturbative correction              ....  0.000000
   Density functional embedding theory  .... OFF
 RI-approximation to the Coulomb term is turned on
   Number of AuxJ basis functions       .... 1286
   RIJ-COSX (HFX calculated with COS-X)).... on


General Settings:
 Integral files         IntName         .... eight_six
 Hartree-Fock type      HFTyp           .... RHF
 Total Charge           Charge          ....    0
 Multiplicity           Mult            ....    1
 Number of Electrons    NEL             ....  154
 Basis Dimension        Dim             ....  804
 Nuclear Repulsion      ENuc            ....   1800.8870661667 Eh

Convergence Acceleration:
 DIIS                   CNVDIIS         .... on
   Start iteration      DIISMaxIt       ....    12
   Startup error        DIISStart       ....  0.200000
   # of expansion vecs  DIISMaxEq       ....     5
   Bias factor          DIISBfac        ....   1.050
   Max. coefficient     DIISMaxC        ....  10.000
 Trust-Rad. Augm. Hess. CNVTRAH         .... auto
   Auto Start mean grad. ratio tolernc. ....  1.125000
   Auto Start start iteration           ....    20
   Auto Start num. interpolation iter.  ....    10
   Max. Number of Micro iterations      ....    16
   Max. Number of Macro iterations      .... Maxiter - #DIIS iter
   Number of Davidson start vectors     ....     2
   Converg. threshold I  (grad. norm)   ....   1.000e-05
   Converg. threshold II (energy diff.) ....   1.000e-08
   Grad. Scal. Fac. for Micro threshold ....   0.100
   Minimum threshold for Micro iter.    ....   0.010
   NR start threshold (gradient norm)   ....   0.001
   Initial trust radius                 ....   0.400
   Minimum AH scaling param. (alpha)    ....   1.000
   Maximum AH scaling param. (alpha)    .... 1000.000
   Orbital update algorithm             .... Taylor
   White noise on init. David. guess    .... on
   Maximum white noise                  ....   0.010
   Quad. conv. algorithm                .... NR
 SOSCF                  CNVSOSCF        .... on
   Start iteration      SOSCFMaxIt      ....   150
   Startup grad/error   SOSCFStart      ....  0.003300
 Level Shifting         CNVShift        .... on
   Level shift para.    LevelShift      ....    0.2500
   Turn off err/grad.   ShiftErr        ....    0.0010
 Zerner damping         CNVZerner       .... off
 Static damping         CNVDamp         .... on
   Fraction old density DampFac         ....    0.7000
   Max. Damping (<1)    DampMax         ....    0.9800
   Min. Damping (>=0)   DampMin         ....    0.0000
   Turn off err/grad.   DampErr         ....    0.1000
 Fernandez-Rico         CNVRico         .... off

SCF Procedure:
 Maximum # iterations   MaxIter         ....   125
 SCF integral mode      SCFMode         .... Direct
   Integral package                     .... SHARK and LIBINT hybrid scheme
 Reset frequency        DirectResetFreq ....    20
 Integral Threshold     Thresh          ....  2.500e-11 Eh
 Primitive CutOff       TCut            ....  2.500e-12 Eh

Convergence Tolerance:
 Convergence Check Mode ConvCheckMode   .... Total+1el-Energy
 Convergence forced     ConvForced      .... 0
 Energy Change          TolE            ....  1.000e-08 Eh
 1-El. energy change                    ....  1.000e-05 Eh
 Orbital Gradient       TolG            ....  1.000e-05
 Orbital Rotation angle TolX            ....  1.000e-05
 DIIS Error             TolErr          ....  5.000e-07


Diagonalization of the overlap matrix:
Smallest eigenvalue                        ... 6.243e-07
Time for diagonalization                   ...    0.294 sec
Threshold for overlap eigenvalues          ... 1.000e-08
Number of eigenvalues below threshold      ... 0
Time for construction of square roots      ...    0.114 sec
Total time needed                          ...    0.412 sec

Time for model grid setup =    0.580 sec

------------------------------
INITIAL GUESS: MODEL POTENTIAL
------------------------------
Loading Hartree-Fock densities                     ... done
Calculating cut-offs                               ... done
Initializing the effective Hamiltonian             ... done
Setting up the integral package (SHARK)            ... done
Starting the Coulomb interaction                   ... done (   1.2 sec)
Reading the grid                                   ... done
Mapping shells                                     ... done
Starting the XC term evaluation                    ... done (   1.1 sec)
  promolecular density results
     # of electrons  =    153.981302541
     EX              =   -125.795802891
     EC              =     -5.219334011
     EX+EC           =   -131.015136902
Transforming the Hamiltonian                       ... done (   0.1 sec)
Diagonalizing the Hamiltonian                      ... done (   0.1 sec)
Back transforming the eigenvectors                 ... done (   0.0 sec)
Now organizing SCF variables                       ... done
                      ------------------
                      INITIAL GUESS DONE (   3.0 sec)
                      ------------------
-------------------
DFT GRID GENERATION
-------------------

General Integration Accuracy     IntAcc      ... 4.388
Radial Grid Type                 RadialGrid  ... OptM3 with GC (2021)
Angular Grid (max. ang.)         AngularGrid ... 4 (Lebedev-302)
Angular grid pruning method      GridPruning ... 4 (adaptive)
Weight generation scheme         WeightScheme... Becke
Basis function cutoff            BFCut       ... 1.0000e-11
Integration weight cutoff        WCut        ... 1.0000e-14
Angular grids for H and He will be reduced by one unit
Partially contracted basis set               ... off
Rotationally invariant grid construction     ... off

Total number of grid points                  ...   174242
Total number of batches                      ...     2738
Average number of points per batch           ...       63
Average number of grid points per atom       ...     5125
Time for grid setup =    1.762 sec

--------------------
COSX GRID GENERATION
--------------------

GRIDX 1
-------
General Integration Accuracy     IntAcc      ... 3.816
Radial Grid Type                 RadialGrid  ... OptM3 with GC (2021)
Angular Grid (max. ang.)         AngularGrid ... 1 (Lebedev-50)
Angular grid pruning method      GridPruning ... 4 (adaptive)
Weight generation scheme         WeightScheme... Becke
Basis function cutoff            BFCut       ... 1.0000e-11
Integration weight cutoff        WCut        ... 1.0000e-14
Angular grids for H and He will be reduced by one unit
Partially contracted basis set               ... on
Rotationally invariant grid construction     ... off

Total number of grid points                  ...    22166
Total number of batches                      ...      360
Average number of points per batch           ...       61
Average number of grid points per atom       ...      652
UseSFitting                                  ... on

GRIDX 2
-------
General Integration Accuracy     IntAcc      ... 4.020
Radial Grid Type                 RadialGrid  ... OptM3 with GC (2021)
Angular Grid (max. ang.)         AngularGrid ... 2 (Lebedev-110)
Angular grid pruning method      GridPruning ... 4 (adaptive)
Weight generation scheme         WeightScheme... Becke
Basis function cutoff            BFCut       ... 1.0000e-11
Integration weight cutoff        WCut        ... 1.0000e-14
Angular grids for H and He will be reduced by one unit
Partially contracted basis set               ... on
Rotationally invariant grid construction     ... off

Total number of grid points                  ...    49061
Total number of batches                      ...      785
Average number of points per batch           ...       62
Average number of grid points per atom       ...     1443
UseSFitting                                  ... on

GRIDX 3
-------
General Integration Accuracy     IntAcc      ... 4.338
Radial Grid Type                 RadialGrid  ... OptM3 with GC (2021)
Angular Grid (max. ang.)         AngularGrid ... 3 (Lebedev-194)
Angular grid pruning method      GridPruning ... 4 (adaptive)
Weight generation scheme         WeightScheme... Becke
Basis function cutoff            BFCut       ... 1.0000e-11
Integration weight cutoff        WCut        ... 1.0000e-14
Angular grids for H and He will be reduced by one unit
Partially contracted basis set               ... on
Rotationally invariant grid construction     ... off

Total number of grid points                  ...   107971
Total number of batches                      ...     1707
Average number of points per batch           ...       63
Average number of grid points per atom       ...     3176
UseSFitting                                  ... on

Time for X-Grid setup             =    4.062 sec

--------------
SCF ITERATIONS
--------------
ITER       Energy         Delta-E        Max-DP      RMS-DP      [F,P]     Damp
               ***  Starting incremental Fock matrix formation  ***
  0   -919.9021943450   0.000000000000 0.15059502  0.00175656  0.1541592 0.7000
  1   -920.1176290761  -0.215434731079 0.13701561  0.00147978  0.0854735 0.7000
                               ***Turning on DIIS***
  2   -920.2029940950  -0.085365018940 0.35056740  0.00358780  0.0676083 0.0000
  3   -920.3702470511  -0.167252956074 0.04884421  0.00060891  0.0386962 0.0000
  4   -920.3865996042  -0.016352553113 0.01803952  0.00023655  0.0447073 0.0000
  5   -920.3933172712  -0.006717666961 0.00819926  0.00011235  0.0062401 0.0000
  6   -920.3936409918  -0.000323720649 0.00564215  0.00006760  0.0035328 0.0000
                      *** Initiating the SOSCF procedure ***
                           *** Shutting down DIIS ***
                      *** Re-Reading the Fockian *** 
                      *** Removing any level shift *** 
ITER      Energy       Delta-E        Grad      Rot      Max-DP    RMS-DP
  7   -920.39371598  -0.0000749844  0.000544  0.000544  0.007157  0.000067
               *** Restarting incremental Fock matrix formation ***
  8   -920.39333640   0.0003795804  0.001031  0.011409  0.069381  0.000761
  9   -920.39314865   0.0001877469  0.006659  0.010840  0.009710  0.000098
 10   -920.39334776  -0.0001991107  0.000162  0.000579  0.007750  0.000075
 11   -920.39334601   0.0000017536  0.000221  0.000350  0.002566  0.000024
 12   -920.39334961  -0.0000036059  0.000024  0.000263  0.000366  0.000004
 13   -920.39334971  -0.0000000972  0.000023  0.000260  0.000589  0.000007
 14   -920.39334976  -0.0000000484  0.000012  0.000031  0.000264  0.000002
 15   -920.39334974   0.0000000151  0.000006  0.000014  0.000092  0.000002
                  ***Gradient check signals convergence***
              ***Rediagonalizing the Fockian in SOSCF/NRSCF***

               *****************************************************
               *                     SUCCESS                       *
               *           SCF CONVERGED AFTER  16 CYCLES          *
               *****************************************************

Old exchange energy                            =    -69.131011649 Eh
New exchange energy                            =    -69.130840169 Eh
Exchange energy change after final integration =      0.000171480 Eh
Total energy after final integration           =   -920.393178287 Eh
Final COS-X integration done in                =    94.072 sec

----------------
TOTAL SCF ENERGY
----------------

Total Energy       :         -920.39317829 Eh          -25045.17165 eV

Components:
Nuclear Repulsion  :         1800.88706617 Eh           49004.62842 eV
Electronic Energy  :        -2721.28024445 Eh          -74049.80007 eV
One Electron Energy:        -4819.84020532 Eh         -131154.51975 eV
Two Electron Energy:         2098.55996086 Eh           57104.71968 eV
Max COSX asymmetry :            0.00000489 Eh               0.00013 eV

Virial components:
Potential Energy   :        -1836.16299549 Eh          -49964.53526 eV
Kinetic Energy     :          915.76981720 Eh           24919.36360 eV
Virial Ratio       :            2.00504861


DFT components:
N(Alpha)           :       77.000149015753 electrons
N(Beta)            :       77.000149015753 electrons
N(Total)           :      154.000298031505 electrons
E(XC)              :      -64.620922876219 Eh       
DFET-embed. en.    :        0.000000000000 Eh       

---------------
SCF CONVERGENCE
---------------

  Last Energy change         ...   -2.4781e-08  Tolerance :   1.0000e-08
  Last MAX-Density change    ...    2.1094e-15  Tolerance :   1.0000e-07
  Last RMS-Density change    ...    1.2955e-17  Tolerance :   5.0000e-09
  Last Orbital Gradient      ...    1.7128e-06  Tolerance :   1.0000e-05
  Last Orbital Rotation      ...    1.2009e-05  Tolerance :   1.0000e-05

             **** THE GBW FILE WAS UPDATED (eight_six.gbw) ****
             **** DENSITY eight_six.scfp WAS UPDATED ****
             **** ENERGY FILE WAS UPDATED (eight_six.en.tmp) ****
             **** THE GBW FILE WAS UPDATED (eight_six.gbw) ****
             **** DENSITY eight_six.scfp WAS UPDATED ****
----------------
ORBITAL ENERGIES
----------------

  NO   OCC          E(Eh)            E(eV) 
   0   2.0000     -10.592912      -288.2478 
   1   2.0000     -10.578904      -287.8666 
   2   2.0000     -10.578656      -287.8599 
   3   2.0000     -10.576033      -287.7885 
   4   2.0000     -10.571425      -287.6631 
   5   2.0000     -10.570799      -287.6461 
   6   2.0000     -10.569448      -287.6093 
   7   2.0000     -10.565146      -287.4922 
   8   2.0000     -10.564022      -287.4617 
   9   2.0000     -10.563071      -287.4358 
  10   2.0000     -10.562944      -287.4323 
  11   2.0000     -10.562783      -287.4279 
  12   2.0000     -10.562502      -287.4203 
  13   2.0000     -10.561460      -287.3919 
  14   2.0000     -10.560432      -287.3640 
  15   2.0000     -10.558852      -287.3210 
  16   2.0000     -10.557022      -287.2712 
  17   2.0000     -10.555603      -287.2326 
  18   2.0000     -10.555332      -287.2252 
  19   2.0000     -10.554571      -287.2045 
  20   2.0000     -10.553412      -287.1729 
  21   2.0000     -10.552935      -287.1600 
  22   2.0000     -10.552376      -287.1447 
  23   2.0000     -10.551985      -287.1341 
  24   2.0000      -1.029993       -28.0275 
  25   2.0000      -0.991602       -26.9829 
  26   2.0000      -0.987661       -26.8756 
  27   2.0000      -0.939522       -25.5657 
  28   2.0000      -0.935517       -25.4567 
  29   2.0000      -0.917928       -24.9781 
  30   2.0000      -0.884169       -24.0595 
  31   2.0000      -0.869355       -23.6564 
  32   2.0000      -0.850924       -23.1548 
  33   2.0000      -0.848109       -23.0782 
  34   2.0000      -0.815069       -22.1792 
  35   2.0000      -0.811423       -22.0799 
  36   2.0000      -0.733923       -19.9711 
  37   2.0000      -0.730286       -19.8721 
  38   2.0000      -0.726123       -19.7588 
  39   2.0000      -0.721483       -19.6326 
  40   2.0000      -0.710207       -19.3257 
  41   2.0000      -0.647949       -17.6316 
  42   2.0000      -0.641064       -17.4442 
  43   2.0000      -0.627384       -17.0720 
  44   2.0000      -0.612443       -16.6654 
  45   2.0000      -0.609618       -16.5885 
  46   2.0000      -0.599419       -16.3110 
  47   2.0000      -0.554831       -15.0977 
  48   2.0000      -0.549462       -14.9516 
  49   2.0000      -0.541820       -14.7437 
  50   2.0000      -0.536128       -14.5888 
  51   2.0000      -0.525395       -14.2967 
  52   2.0000      -0.518911       -14.1203 
  53   2.0000      -0.515597       -14.0301 
  54   2.0000      -0.504241       -13.7211 
  55   2.0000      -0.496154       -13.5010 
  56   2.0000      -0.484868       -13.1939 
  57   2.0000      -0.478868       -13.0307 
  58   2.0000      -0.472902       -12.8683 
  59   2.0000      -0.469002       -12.7622 
  60   2.0000      -0.468904       -12.7595 
  61   2.0000      -0.461535       -12.5590 
  62   2.0000      -0.439692       -11.9646 
  63   2.0000      -0.433519       -11.7966 
  64   2.0000      -0.429914       -11.6985 
  65   2.0000      -0.410065       -11.1584 
  66   2.0000      -0.407594       -11.0912 
  67   2.0000      -0.394499       -10.7349 
  68   2.0000      -0.389780       -10.6065 
  69   2.0000      -0.386406       -10.5146 
  70   2.0000      -0.339507        -9.2384 
  71   2.0000      -0.333771        -9.0824 
  72   2.0000      -0.317987        -8.6529 
  73   2.0000      -0.314939        -8.5699 
  74   2.0000      -0.259744        -7.0680 
  75   2.0000      -0.257808        -7.0153 
  76   2.0000      -0.235694        -6.4136 
  77   0.0000      -0.145137        -3.9494 
  78   0.0000      -0.043893        -1.1944 
  79   0.0000      -0.042472        -1.1557 
  80   0.0000      -0.001030        -0.0280 
  81   0.0000       0.000124         0.0034 
  82   0.0000       0.017803         0.4844 
  83   0.0000       0.049758         1.3540 
  84   0.0000       0.077366         2.1052 
  85   0.0000       0.082565         2.2467 
  86   0.0000       0.084940         2.3113 
  87   0.0000       0.092313         2.5120 
  88   0.0000       0.102080         2.7777 
  89   0.0000       0.107078         2.9137 
  90   0.0000       0.113768         3.0958 
  91   0.0000       0.114456         3.1145 
  92   0.0000       0.119020         3.2387 
  93   0.0000       0.121072         3.2945 
  94   0.0000       0.124565         3.3896 
  95   0.0000       0.135158         3.6778 
  96   0.0000       0.135973         3.7000 
  97   0.0000       0.139611         3.7990 
  98   0.0000       0.153968         4.1897 
  99   0.0000       0.172447         4.6925 
 100   0.0000       0.176176         4.7940 
 101   0.0000       0.178697         4.8626 
 102   0.0000       0.187541         5.1033 
 103   0.0000       0.191256         5.2043 
 104   0.0000       0.192994         5.2516 
 105   0.0000       0.201773         5.4905 
 106   0.0000       0.204690         5.5699 
 107   0.0000       0.210348         5.7239 
 108   0.0000       0.213211         5.8018 
 109   0.0000       0.225765         6.1434 
 110   0.0000       0.232115         6.3162 
 111   0.0000       0.234045         6.3687 
 112   0.0000       0.236456         6.4343 
 113   0.0000       0.245390         6.6774 
 114   0.0000       0.247462         6.7338 
 115   0.0000       0.261574         7.1178 
 116   0.0000       0.262207         7.1350 
 117   0.0000       0.265303         7.2193 
 118   0.0000       0.268176         7.2974 
 119   0.0000       0.269228         7.3261 
 120   0.0000       0.281957         7.6724 
 121   0.0000       0.283090         7.7033 
 122   0.0000       0.283247         7.7075 
 123   0.0000       0.287167         7.8142 
 124   0.0000       0.291978         7.9451 
 125   0.0000       0.293035         7.9739 
 126   0.0000       0.297991         8.1087 
 127   0.0000       0.302871         8.2415 
 128   0.0000       0.309964         8.4345 
 129   0.0000       0.312822         8.5123 
 130   0.0000       0.317808         8.6480 
 131   0.0000       0.319101         8.6832 
 132   0.0000       0.319624         8.6974 
 133   0.0000       0.321718         8.7544 
 134   0.0000       0.323522         8.8035 
 135   0.0000       0.324888         8.8406 
 136   0.0000       0.336661         9.1610 
 137   0.0000       0.341609         9.2957 
 138   0.0000       0.354285         9.6406 
 139   0.0000       0.354976         9.6594 
 140   0.0000       0.356888         9.7114 
 141   0.0000       0.358858         9.7650 
 142   0.0000       0.360428         9.8078 
 143   0.0000       0.370399        10.0791 
 144   0.0000       0.377846        10.2817 
 145   0.0000       0.380996        10.3674 
 146   0.0000       0.381813        10.3897 
 147   0.0000       0.382784        10.4161 
 148   0.0000       0.383504        10.4357 
 149   0.0000       0.386142        10.5075 
 150   0.0000       0.391275        10.6471 
 151   0.0000       0.397317        10.8115 
 152   0.0000       0.402447        10.9511 
 153   0.0000       0.403781        10.9874 
 154   0.0000       0.411464        11.1965 
 155   0.0000       0.412917        11.2360 
 156   0.0000       0.420923        11.4539 
 157   0.0000       0.423606        11.5269 
 158   0.0000       0.425985        11.5916 
 159   0.0000       0.434080        11.8119 
 160   0.0000       0.437279        11.8990 
 161   0.0000       0.446928        12.1615 
 162   0.0000       0.448810        12.2128 
 163   0.0000       0.456460        12.4209 
 164   0.0000       0.458718        12.4824 
 165   0.0000       0.461682        12.5630 
 166   0.0000       0.465366        12.6632 
 167   0.0000       0.470221        12.7954 
 168   0.0000       0.474030        12.8990 
 169   0.0000       0.476598        12.9689 
 170   0.0000       0.480035        13.0624 
 171   0.0000       0.495068        13.4715 
 172   0.0000       0.507923        13.8213 
 173   0.0000       0.510174        13.8825 
 174   0.0000       0.513640        13.9769 
 175   0.0000       0.514639        14.0040 
 176   0.0000       0.514940        14.0122 
 177   0.0000       0.516603        14.0575 
 178   0.0000       0.530581        14.4378 
 179   0.0000       0.531064        14.4510 
 180   0.0000       0.543471        14.7886 
 181   0.0000       0.544452        14.8153 
 182   0.0000       0.546415        14.8687 
 183   0.0000       0.548425        14.9234 
 184   0.0000       0.553641        15.0653 
 185   0.0000       0.554667        15.0933 
 186   0.0000       0.572400        15.5758 
 187   0.0000       0.572897        15.5893 
 188   0.0000       0.577920        15.7260 
 189   0.0000       0.581420        15.8212 
 190   0.0000       0.587260        15.9801 
 191   0.0000       0.604001        16.4357 
 192   0.0000       0.615221        16.7410 
 193   0.0000       0.630409        17.1543 
 194   0.0000       0.634427        17.2636 
 195   0.0000       0.634976        17.2786 
 196   0.0000       0.635832        17.3019 
 197   0.0000       0.636804        17.3283 
 198   0.0000       0.640760        17.4360 
 199   0.0000       0.648500        17.6466 
 200   0.0000       0.652162        17.7462 
 201   0.0000       0.655861        17.8469 
 202   0.0000       0.660428        17.9712 
 203   0.0000       0.663865        18.0647 
 204   0.0000       0.668142        18.1811 
 205   0.0000       0.672467        18.2987 
 206   0.0000       0.674890        18.3647 
 207   0.0000       0.677097        18.4248 
 208   0.0000       0.686303        18.6753 
 209   0.0000       0.689043        18.7498 
 210   0.0000       0.695596        18.9281 
 211   0.0000       0.698665        19.0116 
 212   0.0000       0.706933        19.2366 
 213   0.0000       0.723381        19.6842 
 214   0.0000       0.724749        19.7214 
 215   0.0000       0.729030        19.8379 
 216   0.0000       0.735683        20.0190 
 217   0.0000       0.746232        20.3060 
 218   0.0000       0.756069        20.5737 
 219   0.0000       0.763206        20.7679 
 220   0.0000       0.765707        20.8360 
 221   0.0000       0.766532        20.8584 
 222   0.0000       0.767502        20.8848 
 223   0.0000       0.778492        21.1838 
 224   0.0000       0.781054        21.2536 
 225   0.0000       0.781568        21.2675 
 226   0.0000       0.782241        21.2859 
 227   0.0000       0.787813        21.4375 
 228   0.0000       0.791301        21.5324 
 229   0.0000       0.793290        21.5865 
 230   0.0000       0.796748        21.6806 
 231   0.0000       0.801431        21.8080 
 232   0.0000       0.806968        21.9587 
 233   0.0000       0.822633        22.3850 
 234   0.0000       0.825432        22.4612 
 235   0.0000       0.831179        22.6175 
 236   0.0000       0.836502        22.7624 
 237   0.0000       0.838641        22.8206 
 238   0.0000       0.846302        23.0290 
 239   0.0000       0.847551        23.0630 
 240   0.0000       0.859661        23.3926 
 241   0.0000       0.865702        23.5569 
 242   0.0000       0.870338        23.6831 
 243   0.0000       0.872033        23.7292 
 244   0.0000       0.875712        23.8293 
 245   0.0000       0.883333        24.0367 
 246   0.0000       0.887663        24.1545 
 247   0.0000       0.891116        24.2485 
 248   0.0000       0.899279        24.4706 
 249   0.0000       0.899997        24.4902 
 250   0.0000       0.907671        24.6990 
 251   0.0000       0.913537        24.8586 
 252   0.0000       0.919432        25.0190 
 253   0.0000       0.920937        25.0600 
 254   0.0000       0.926032        25.1986 
 255   0.0000       0.937585        25.5130 
 256   0.0000       0.950464        25.8634 
 257   0.0000       0.952508        25.9191 
 258   0.0000       0.960329        26.1319 
 259   0.0000       0.969080        26.3700 
 260   0.0000       0.989367        26.9220 
 261   0.0000       0.995219        27.0813 
 262   0.0000       0.998046        27.1582 
 263   0.0000       1.018579        27.7169 
 264   0.0000       1.018988        27.7281 
 265   0.0000       1.022760        27.8307 
 266   0.0000       1.023654        27.8550 
 267   0.0000       1.051593        28.6153 
 268   0.0000       1.052680        28.6449 
 269   0.0000       1.053889        28.6778 
 270   0.0000       1.071487        29.1566 
 271   0.0000       1.076063        29.2812 
 272   0.0000       1.078861        29.3573 
 273   0.0000       1.086948        29.5774 
 274   0.0000       1.090595        29.6766 
 275   0.0000       1.097918        29.8759 
 276   0.0000       1.104493        30.0548 
 277   0.0000       1.116277        30.3754 
 278   0.0000       1.123027        30.5591 
 279   0.0000       1.128682        30.7130 
 280   0.0000       1.135859        30.9083 
 281   0.0000       1.139189        30.9989 
 282   0.0000       1.193495        32.4766 
 283   0.0000       1.199870        32.6501 
 284   0.0000       1.202076        32.7102 
 285   0.0000       1.207842        32.8670 
 286   0.0000       1.211957        32.9790 
 287   0.0000       1.218385        33.1539 
 288   0.0000       1.226745        33.3814 
 289   0.0000       1.231540        33.5119 
 290   0.0000       1.240821        33.7644 
 291   0.0000       1.242623        33.8135 
 292   0.0000       1.249399        33.9979 
 293   0.0000       1.254695        34.1420 
 294   0.0000       1.261361        34.3234 
 295   0.0000       1.271891        34.6099 
 296   0.0000       1.275821        34.7169 
 297   0.0000       1.278684        34.7948 
 298   0.0000       1.284510        34.9533 
 299   0.0000       1.289150        35.0796 
 300   0.0000       1.289345        35.0849 
 301   0.0000       1.292611        35.1737 
 302   0.0000       1.296583        35.2818 
 303   0.0000       1.309791        35.6412 
 304   0.0000       1.321545        35.9611 
 305   0.0000       1.325544        36.0699 
 306   0.0000       1.332827        36.2681 
 307   0.0000       1.343176        36.5497 
 308   0.0000       1.357276        36.9334 
 309   0.0000       1.362569        37.0774 
 310   0.0000       1.367727        37.2178 
 311   0.0000       1.370092        37.2821 
 312   0.0000       1.372416        37.3453 
 313   0.0000       1.378868        37.5209 
 314   0.0000       1.393329        37.9144 
 315   0.0000       1.397282        38.0220 
 316   0.0000       1.399321        38.0775 
 317   0.0000       1.404610        38.2214 
 318   0.0000       1.411644        38.4128 
 319   0.0000       1.414922        38.5020 
 320   0.0000       1.424159        38.7533 
 321   0.0000       1.424228        38.7552 
 322   0.0000       1.432011        38.9670 
 323   0.0000       1.457827        39.6695 
 324   0.0000       1.464043        39.8386 
 325   0.0000       1.475948        40.1626 
 326   0.0000       1.478792        40.2400 
 327   0.0000       1.490876        40.5688 
 328   0.0000       1.494354        40.6634 
 329   0.0000       1.494659        40.6717 
 330   0.0000       1.505224        40.9592 
 331   0.0000       1.514698        41.2170 
 332   0.0000       1.518329        41.3158 
 333   0.0000       1.524833        41.4928 
 334   0.0000       1.536827        41.8192 
 335   0.0000       1.540171        41.9102 
 336   0.0000       1.544904        42.0390 
 337   0.0000       1.547772        42.1170 
 338   0.0000       1.555012        42.3140 
 339   0.0000       1.568605        42.6839 
 340   0.0000       1.568657        42.6853 
 341   0.0000       1.573258        42.8105 
 342   0.0000       1.575510        42.8718 
 343   0.0000       1.591484        43.3065 
 344   0.0000       1.594571        43.3905 
 345   0.0000       1.599083        43.5133 
 346   0.0000       1.622226        44.1430 
 347   0.0000       1.624136        44.1950 
 348   0.0000       1.629310        44.3358 
 349   0.0000       1.634815        44.4856 
 350   0.0000       1.638873        44.5960 
 351   0.0000       1.649951        44.8974 
 352   0.0000       1.652656        44.9710 
 353   0.0000       1.655042        45.0360 
 354   0.0000       1.655448        45.0470 
 355   0.0000       1.656962        45.0882 
 356   0.0000       1.659418        45.1551 
 357   0.0000       1.667738        45.3815 
 358   0.0000       1.704125        46.3716 
 359   0.0000       1.713537        46.6277 
 360   0.0000       1.722709        46.8773 
 361   0.0000       1.725504        46.9534 
 362   0.0000       1.726703        46.9860 
 363   0.0000       1.730479        47.0887 
 364   0.0000       1.733431        47.1690 
 365   0.0000       1.735312        47.2202 
 366   0.0000       1.743317        47.4381 
 367   0.0000       1.747455        47.5507 
 368   0.0000       1.748543        47.5803 
 369   0.0000       1.754213        47.7346 
 370   0.0000       1.761758        47.9399 
 371   0.0000       1.772978        48.2452 
 372   0.0000       1.778257        48.3888 
 373   0.0000       1.779959        48.4352 
 374   0.0000       1.785341        48.5816 
 375   0.0000       1.797547        48.9137 
 376   0.0000       1.807637        49.1883 
 377   0.0000       1.823043        49.6075 
 378   0.0000       1.829950        49.7955 
 379   0.0000       1.856273        50.5117 
 380   0.0000       1.864413        50.7333 
 381   0.0000       1.884113        51.2693 
 382   0.0000       1.896595        51.6090 
 383   0.0000       1.906064        51.8666 
 384   0.0000       1.910862        51.9972 
 385   0.0000       1.923913        52.3523 
 386   0.0000       1.926188        52.4142 
 387   0.0000       1.940123        52.7934 
 388   0.0000       1.951988        53.1163 
 389   0.0000       1.954257        53.1780 
 390   0.0000       1.964898        53.4676 
 391   0.0000       1.976598        53.7860 
 392   0.0000       1.985105        54.0174 
 393   0.0000       1.988752        54.1167 
 394   0.0000       1.995513        54.3007 
 395   0.0000       1.996181        54.3188 
 396   0.0000       2.016007        54.8583 
 397   0.0000       2.025562        55.1183 
[...]

For completeness - the Gibbs free energy minus the electronic energy
G-E(el)                           ...     -3.62017402 Eh  -2271.69 kcal/mol


The first frequency considered to be a vibration is 6
The total number of vibrations considered is 96


--------------------------
THERMOCHEMISTRY AT 8000.00K
--------------------------

Temperature         ... 8000.00 K
Pressure            ... 1.00 atm
Total Mass          ... 298.34 AMU

Throughout the following assumptions are being made:
  (1) The electronic state is orbitally nondegenerate
  (2) There are no thermally accessible electronically excited states
  (3) Hindered rotations indicated by low frequency modes are not
      treated as such but are treated as vibrations and this may
      cause some error
  (4) All equations used are the standard statistical mechanics
      equations for an ideal gas
  (5) All vibrations are strictly harmonic

freq.      79.89  E(vib)   ...      15.78 
freq.      90.63  E(vib)   ...      15.77 
freq.     117.08  E(vib)   ...      15.73 
freq.     162.43  E(vib)   ...      15.67 
freq.     224.45  E(vib)   ...      15.58 
freq.     248.06  E(vib)   ...      15.55 
freq.     268.14  E(vib)   ...      15.52 
freq.     306.09  E(vib)   ...      15.46 
freq.     307.70  E(vib)   ...      15.46 
freq.     309.43  E(vib)   ...      15.46 
freq.     359.03  E(vib)   ...      15.39 
freq.     373.19  E(vib)   ...      15.37 
freq.     375.82  E(vib)   ...      15.37 
freq.     392.77  E(vib)   ...      15.34 
freq.     419.94  E(vib)   ...      15.31 
freq.     444.42  E(vib)   ...      15.27 
freq.     450.27  E(vib)   ...      15.26 
freq.     489.11  E(vib)   ...      15.21 
freq.     494.11  E(vib)   ...      15.20 
freq.     504.90  E(vib)   ...      15.19 
freq.     506.74  E(vib)   ...      15.18 
freq.     527.02  E(vib)   ...      15.16 
freq.     551.91  E(vib)   ...      15.12 
freq.     575.93  E(vib)   ...      15.09 
freq.     580.82  E(vib)   ...      15.08 
freq.     596.79  E(vib)   ...      15.06 
freq.     627.52  E(vib)   ...      15.02 
freq.     652.39  E(vib)   ...      14.98 
freq.     665.50  E(vib)   ...      14.97 
freq.     681.61  E(vib)   ...      14.94 
freq.     682.44  E(vib)   ...      14.94 
freq.     691.21  E(vib)   ...      14.93 
freq.     732.40  E(vib)   ...      14.87 
freq.     758.70  E(vib)   ...      14.84 
freq.     773.36  E(vib)   ...      14.82 
freq.     790.73  E(vib)   ...      14.79 
freq.     799.01  E(vib)   ...      14.78 
freq.     837.28  E(vib)   ...      14.73 
freq.     837.30  E(vib)   ...      14.73 
freq.     843.54  E(vib)   ...      14.72 
freq.     867.19  E(vib)   ...      14.69 
freq.     868.92  E(vib)   ...      14.69 
freq.     884.10  E(vib)   ...      14.67 
freq.     902.31  E(vib)   ...      14.64 
freq.     923.46  E(vib)   ...      14.61 
freq.     945.17  E(vib)   ...      14.59 
freq.     981.47  E(vib)   ...      14.54 
freq.     988.47  E(vib)   ...      14.53 
freq.     995.75  E(vib)   ...      14.52 
freq.     999.85  E(vib)   ...      14.51 
freq.    1014.15  E(vib)   ...      14.49 
freq.    1029.32  E(vib)   ...      14.47 
freq.    1095.21  E(vib)   ...      14.38 
freq.    1142.93  E(vib)   ...      14.32 
freq.    1153.94  E(vib)   ...      14.31 
freq.    1171.79  E(vib)   ...      14.28 
freq.    1179.18  E(vib)   ...      14.27 
freq.    1197.30  E(vib)   ...      14.25 
freq.    1209.17  E(vib)   ...      14.23 
freq.    1224.86  E(vib)   ...      14.21 
freq.    1247.53  E(vib)   ...      14.18 
freq.    1252.23  E(vib)   ...      14.17 
freq.    1253.77  E(vib)   ...      14.17 
freq.    1276.19  E(vib)   ...      14.14 
freq.    1309.73  E(vib)   ...      14.10 
freq.    1331.55  E(vib)   ...      14.07 
freq.    1342.06  E(vib)   ...      14.06 
freq.    1373.03  E(vib)   ...      14.02 
freq.    1408.02  E(vib)   ...      13.97 
freq.    1427.01  E(vib)   ...      13.95 
freq.    1431.36  E(vib)   ...      13.94 
freq.    1445.70  E(vib)   ...      13.92 
freq.    1457.60  E(vib)   ...      13.91 
freq.    1463.23  E(vib)   ...      13.90 
freq.    1492.31  E(vib)   ...      13.86 
freq.    1500.15  E(vib)   ...      13.85 
freq.    1530.84  E(vib)   ...      13.81 
freq.    1554.68  E(vib)   ...      13.78 
freq.    1570.92  E(vib)   ...      13.76 
freq.    1589.50  E(vib)   ...      13.73 
freq.    1601.02  E(vib)   ...      13.72 
freq.    1672.85  E(vib)   ...      13.63 
freq.    1686.94  E(vib)   ...      13.61 
freq.    1692.99  E(vib)   ...      13.60 
freq.    1708.49  E(vib)   ...      13.58 
freq.    1783.82  E(vib)   ...      13.48 
freq.    3189.61  E(vib)   ...      11.77 
freq.    3202.72  E(vib)   ...      11.76 
freq.    3203.69  E(vib)   ...      11.76 
freq.    3204.22  E(vib)   ...      11.75 
freq.    3212.42  E(vib)   ...      11.75 
freq.    3219.31  E(vib)   ...      11.74 
freq.    3220.15  E(vib)   ...      11.74 
freq.    3221.43  E(vib)   ...      11.73 
freq.    3236.35  E(vib)   ...      11.72 
freq.    3325.29  E(vib)   ...      11.62 

------------
INNER ENERGY
------------

The inner energy is: U= E(el) + E(ZPE) + E(vib) + E(rot) + E(trans)
    E(el)   - is the total energy from the electronic structure calculation
              = E(kin-el) + E(nuc-el) + E(el-el) + E(nuc-nuc)
    E(ZPE)  - the the zero temperature vibrational energy from the frequency calculation
    E(vib)  - the the finite temperature correction to E(ZPE) due to population
              of excited vibrational states
    E(rot)  - is the rotational thermal energy
    E(trans)- is the translational thermal energy

Summary of contributions to the inner energy U:
Electronic energy                ...   -920.40896856 Eh
Zero point energy                ...      0.25411353 Eh     159.46 kcal/mol
Thermal vibrational correction   ...      2.19133995 Eh    1375.08 kcal/mol
Thermal rotational correction    ...      0.03800158 Eh      23.85 kcal/mol
Thermal translational correction ...      0.03800158 Eh      23.85 kcal/mol
-----------------------------------------------------------------------
Total thermal energy                   -917.88751192 Eh


Summary of corrections to the electronic energy:
(perhaps to be used in another calculation)
Total thermal correction                  2.26734311 Eh    1422.78 kcal/mol
Non-thermal (ZPE) correction              0.25411353 Eh     159.46 kcal/mol
-----------------------------------------------------------------------
Total correction                          2.52145664 Eh    1582.23 kcal/mol


--------
ENTHALPY
--------

The enthalpy is H = U + kB*T
                kB is Boltzmann's constant
Total free energy                 ...   -917.88751192 Eh 
Thermal Enthalpy correction       ...      0.02533514 Eh      15.90 kcal/mol
-----------------------------------------------------------------------
Total Enthalpy                    ...   -917.86217678 Eh


Note: Rotational entropy computed according to Herzberg 
Infrared and Raman Spectra, Chapter V,1, Van Nostrand Reinhold, 1945 
Point Group:  Cs, Symmetry Number:   1  
Rotational constants in cm-1:     0.011551     0.011262     0.005702 

Vibrational entropy computed according to the QRRHO of S. Grimme
Chem.Eur.J. 2012 18 9955


-------
ENTROPY
-------

The entropy contributions are T*S = T*(S(el)+S(vib)+S(rot)+S(trans))
     S(el)   - electronic entropy
     S(vib)  - vibrational entropy
     S(rot)  - rotational entropy
     S(trans)- translational entropy
The entropies will be listed as multiplied by the temperature to get
units of energy

Electronic entropy                ...      0.00000000 Eh      0.00 kcal/mol
Vibrational entropy               ...      6.78535275 Eh   4257.86 kcal/mol
Rotational entropy                ...      0.55899355 Eh    350.77 kcal/mol
Translational entropy             ...      0.75624431 Eh    474.55 kcal/mol
-----------------------------------------------------------------------
Final entropy term                ...      8.10059062 Eh   5083.19 kcal/mol

In case the symmetry of your molecule has not been determined correctly
or in case you have a reason to use a different symmetry number we print 
out the resulting rotational entropy values for sn=1,12 :
 --------------------------------------------------------
|  sn= 1 | S(rot)=       0.55899355 Eh    350.77 kcal/mol|
|  sn= 2 | S(rot)=       0.54143309 Eh    339.75 kcal/mol|
|  sn= 3 | S(rot)=       0.53116088 Eh    333.31 kcal/mol|
|  sn= 4 | S(rot)=       0.52387263 Eh    328.73 kcal/mol|
|  sn= 5 | S(rot)=       0.51821943 Eh    325.19 kcal/mol|
|  sn= 6 | S(rot)=       0.51360042 Eh    322.29 kcal/mol|
|  sn= 7 | S(rot)=       0.50969511 Eh    319.84 kcal/mol|
|  sn= 8 | S(rot)=       0.50631217 Eh    317.71 kcal/mol|
|  sn= 9 | S(rot)=       0.50332821 Eh    315.84 kcal/mol|
|  sn=10 | S(rot)=       0.50065897 Eh    314.17 kcal/mol|
|  sn=11 | S(rot)=       0.49824434 Eh    312.65 kcal/mol|
|  sn=12 | S(rot)=       0.49603996 Eh    311.27 kcal/mol|
 --------------------------------------------------------


-------------------
GIBBS FREE ENERGY
-------------------

The Gibbs free energy is G = H - T*S

Total enthalpy                    ...   -917.86217678 Eh 
Total entropy correction          ...     -8.10059062 Eh  -5083.19 kcal/mol
-----------------------------------------------------------------------
Final Gibbs free energy         ...   -925.96276740 Eh

For completeness - the Gibbs free energy minus the electronic energy
G-E(el)                           ...     -5.55379884 Eh  -3485.05 kcal/mol


The first frequency considered to be a vibration is 6
The total number of vibrations considered is 96


--------------------------
THERMOCHEMISTRY AT 10000.00K
--------------------------

Temperature         ... 10000.00 K
Pressure            ... 1.00 atm
Total Mass          ... 298.34 AMU

Throughout the following assumptions are being made:
  (1) The electronic state is orbitally nondegenerate
  (2) There are no thermally accessible electronically excited states
  (3) Hindered rotations indicated by low frequency modes are not
      treated as such but are treated as vibrations and this may
      cause some error
  (4) All equations used are the standard statistical mechanics
      equations for an ideal gas
  (5) All vibrations are strictly harmonic

freq.      79.89  E(vib)   ...      19.76 
freq.      90.63  E(vib)   ...      19.74 
freq.     117.08  E(vib)   ...      19.71 
freq.     162.43  E(vib)   ...      19.64 
freq.     224.45  E(vib)   ...      19.55 
freq.     248.06  E(vib)   ...      19.52 
freq.     268.14  E(vib)   ...      19.49 
freq.     306.09  E(vib)   ...      19.44 
freq.     307.70  E(vib)   ...      19.44 
freq.     309.43  E(vib)   ...      19.43 
freq.     359.03  E(vib)   ...      19.36 
freq.     373.19  E(vib)   ...      19.34 
freq.     375.82  E(vib)   ...      19.34 
freq.     392.77  E(vib)   ...      19.32 
freq.     419.94  E(vib)   ...      19.28 
freq.     444.42  E(vib)   ...      19.24 
freq.     450.27  E(vib)   ...      19.24 
freq.     489.11  E(vib)   ...      19.18 
freq.     494.11  E(vib)   ...      19.17 
freq.     504.90  E(vib)   ...      19.16 
freq.     506.74  E(vib)   ...      19.16 
freq.     527.02  E(vib)   ...      19.13 
freq.     551.91  E(vib)   ...      19.09 
freq.     575.93  E(vib)   ...      19.06 
freq.     580.82  E(vib)   ...      19.05 
freq.     596.79  E(vib)   ...      19.03 
freq.     627.52  E(vib)   ...      18.99 
freq.     652.39  E(vib)   ...      18.95 
freq.     665.50  E(vib)   ...      18.94 
freq.     681.61  E(vib)   ...      18.91 
freq.     682.44  E(vib)   ...      18.91 
freq.     691.21  E(vib)   ...      18.90 
freq.     732.40  E(vib)   ...      18.84 
freq.     758.70  E(vib)   ...      18.81 
freq.     773.36  E(vib)   ...      18.79 
freq.     790.73  E(vib)   ...      18.76 
freq.     799.01  E(vib)   ...      18.75 
freq.     837.28  E(vib)   ...      18.70 
freq.     837.30  E(vib)   ...      18.70 
freq.     843.54  E(vib)   ...      18.69 
freq.     867.19  E(vib)   ...      18.66 
freq.     868.92  E(vib)   ...      18.66 
freq.     884.10  E(vib)   ...      18.64 
freq.     902.31  E(vib)   ...      18.61 
freq.     923.46  E(vib)   ...      18.58 
freq.     945.17  E(vib)   ...      18.55 
freq.     981.47  E(vib)   ...      18.50 
freq.     988.47  E(vib)   ...      18.49 
freq.     995.75  E(vib)   ...      18.48 
freq.     999.85  E(vib)   ...      18.48 
freq.    1014.15  E(vib)   ...      18.46 
freq.    1029.32  E(vib)   ...      18.44 
freq.    1095.21  E(vib)   ...      18.35 
freq.    1142.93  E(vib)   ...      18.28 
freq.    1153.94  E(vib)   ...      18.27 
freq.    1171.79  E(vib)   ...      18.24 
freq.    1179.18  E(vib)   ...      18.23 
freq.    1197.30  E(vib)   ...      18.21 
freq.    1209.17  E(vib)   ...      18.19 
freq.    1224.86  E(vib)   ...      18.17 
freq.    1247.53  E(vib)   ...      18.14 
freq.    1252.23  E(vib)   ...      18.14 
freq.    1253.77  E(vib)   ...      18.13 
freq.    1276.19  E(vib)   ...      18.10 
freq.    1309.73  E(vib)   ...      18.06 
freq.    1331.55  E(vib)   ...      18.03 
freq.    1342.06  E(vib)   ...      18.02 
freq.    1373.03  E(vib)   ...      17.97 
freq.    1408.02  E(vib)   ...      17.93 
freq.    1427.01  E(vib)   ...      17.90 
freq.    1431.36  E(vib)   ...      17.90 
freq.    1445.70  E(vib)   ...      17.88 
freq.    1457.60  E(vib)   ...      17.86 
freq.    1463.23  E(vib)   ...      17.85 
freq.    1492.31  E(vib)   ...      17.82 
freq.    1500.15  E(vib)   ...      17.81 
freq.    1530.84  E(vib)   ...      17.76 
freq.    1554.68  E(vib)   ...      17.73 
freq.    1570.92  E(vib)   ...      17.71 
freq.    1589.50  E(vib)   ...      17.69 
freq.    1601.02  E(vib)   ...      17.67 
freq.    1672.85  E(vib)   ...      17.58 
freq.    1686.94  E(vib)   ...      17.56 
freq.    1692.99  E(vib)   ...      17.55 
freq.    1708.49  E(vib)   ...      17.53 
freq.    1783.82  E(vib)   ...      17.43 
freq.    3189.61  E(vib)   ...      15.66 
freq.    3202.72  E(vib)   ...      15.64 
freq.    3203.69  E(vib)   ...      15.64 
freq.    3204.22  E(vib)   ...      15.64 
freq.    3212.42  E(vib)   ...      15.63 
freq.    3219.31  E(vib)   ...      15.62 
freq.    3220.15  E(vib)   ...      15.62 
freq.    3221.43  E(vib)   ...      15.62 
freq.    3236.35  E(vib)   ...      15.60 
freq.    3325.29  E(vib)   ...      15.50 

------------
INNER ENERGY
------------

The inner energy is: U= E(el) + E(ZPE) + E(vib) + E(rot) + E(trans)
    E(el)   - is the total energy from the electronic structure calculation
              = E(kin-el) + E(nuc-el) + E(el-el) + E(nuc-nuc)
    E(ZPE)  - the the zero temperature vibrational energy from the frequency calculation
    E(vib)  - the the finite temperature correction to E(ZPE) due to population
              of excited vibrational states
    E(rot)  - is the rotational thermal energy
    E(trans)- is the translational thermal energy

Summary of contributions to the inner energy U:
Electronic energy                ...   -920.40896856 Eh
Zero point energy                ...      0.25411353 Eh     159.46 kcal/mol
Thermal vibrational correction   ...      2.79674037 Eh    1754.98 kcal/mol
Thermal rotational correction    ...      0.04750198 Eh      29.81 kcal/mol
Thermal translational correction ...      0.04750198 Eh      29.81 kcal/mol
-----------------------------------------------------------------------
Total thermal energy                   -917.26311070 Eh


Summary of corrections to the electronic energy:
(perhaps to be used in another calculation)
Total thermal correction                  2.89174433 Eh    1814.59 kcal/mol
Non-thermal (ZPE) correction              0.25411353 Eh     159.46 kcal/mol
-----------------------------------------------------------------------
Total correction                          3.14585785 Eh    1974.05 kcal/mol


--------
ENTHALPY
--------

The enthalpy is H = U + kB*T
                kB is Boltzmann's constant
Total free energy                 ...   -917.26311070 Eh 
Thermal Enthalpy correction       ...      0.03166893 Eh      19.87 kcal/mol
-----------------------------------------------------------------------
Total Enthalpy                    ...   -917.23144178 Eh


Note: Rotational entropy computed according to Herzberg 
Infrared and Raman Spectra, Chapter V,1, Van Nostrand Reinhold, 1945 
Point Group:  Cs, Symmetry Number:   1  
Rotational constants in cm-1:     0.011551     0.011262     0.005702 

Vibrational entropy computed according to the QRRHO of S. Grimme
Chem.Eur.J. 2012 18 9955


-------
ENTROPY
-------

The entropy contributions are T*S = T*(S(el)+S(vib)+S(rot)+S(trans))
     S(el)   - electronic entropy
     S(vib)  - vibrational entropy
     S(rot)  - rotational entropy
     S(trans)- translational entropy
The entropies will be listed as multiplied by the temperature to get
units of energy

Electronic entropy                ...      0.00000000 Eh      0.00 kcal/mol
Vibrational entropy               ...      9.15023507 Eh   5741.85 kcal/mol
Rotational entropy                ...      0.70934170 Eh    445.12 kcal/mol
Translational entropy             ...      0.96297166 Eh    604.27 kcal/mol
-----------------------------------------------------------------------
Final entropy term                ...     10.82254843 Eh   6791.24 kcal/mol

In case the symmetry of your molecule has not been determined correctly
or in case you have a reason to use a different symmetry number we print 
out the resulting rotational entropy values for sn=1,12 :
 --------------------------------------------------------
|  sn= 1 | S(rot)=       0.70934170 Eh    445.12 kcal/mol|
|  sn= 2 | S(rot)=       0.68739112 Eh    431.34 kcal/mol|
|  sn= 3 | S(rot)=       0.67455086 Eh    423.29 kcal/mol|
|  sn= 4 | S(rot)=       0.66544055 Eh    417.57 kcal/mol|
|  sn= 5 | S(rot)=       0.65837404 Eh    413.14 kcal/mol|
|  sn= 6 | S(rot)=       0.65260029 Eh    409.51 kcal/mol|
|  sn= 7 | S(rot)=       0.64771865 Eh    406.45 kcal/mol|
|  sn= 8 | S(rot)=       0.64348998 Eh    403.80 kcal/mol|
|  sn= 9 | S(rot)=       0.63976002 Eh    401.45 kcal/mol|
|  sn=10 | S(rot)=       0.63642347 Eh    399.36 kcal/mol|
|  sn=11 | S(rot)=       0.63340519 Eh    397.47 kcal/mol|
|  sn=12 | S(rot)=       0.63064971 Eh    395.74 kcal/mol|
 --------------------------------------------------------


-------------------
GIBBS FREE ENERGY
-------------------

The Gibbs free energy is G = H - T*S

Total enthalpy                    ...   -917.23144178 Eh 
Total entropy correction          ...    -10.82254843 Eh  -6791.24 kcal/mol
-----------------------------------------------------------------------
Final Gibbs free energy         ...   -928.05399020 Eh

For completeness - the Gibbs free energy minus the electronic energy
G-E(el)                           ...     -7.64502164 Eh  -4797.31 kcal/mol


Timings for individual modules:

Sum of individual times         ...    29703.717 sec (= 495.062 min)
GTO integral calculation        ...       36.796 sec (=   0.613 min)   0.1 %
SCF iterations                  ...     8501.130 sec (= 141.685 min)  28.6 %
SCF Gradient evaluation         ...     2237.666 sec (=  37.294 min)   7.5 %
Geometry relaxation             ...        2.878 sec (=   0.048 min)   0.0 %
Analytical frequency calculation...    18925.247 sec (= 315.421 min)  63.7 %
                             ****ORCA TERMINATED NORMALLY****
TOTAL RUN TIME: 0 days 8 hours 15 minutes 17 seconds 449 msec
