
                                 *****************
                                 * O   R   C   A *
                                 *****************

                                            #,                                       
                                            ###                                      
                                            ####                                     
                                            #####                                    
                                            ######                                   
                                           ########,                                 
                                     ,,################,,,,,                         
                               ,,#################################,,                 
                          ,,##########################################,,             
                       ,#########################################, ''#####,          
                    ,#############################################,,   '####,        
                  ,##################################################,,,,####,       
                ,###########''''           ''''###############################       
              ,#####''   ,,,,##########,,,,          '''####'''          '####       
            ,##' ,,,,###########################,,,                        '##       
           ' ,,###''''                  '''############,,,                           
         ,,##''                                '''############,,,,        ,,,,,,###''
      ,#''                                            '''#######################'''  
     '                                                          ''''####''''         
             ,#######,   #######,   ,#######,      ##                                
            ,#'     '#,  ##    ##  ,#'     '#,    #''#        ######   ,####,        
            ##       ##  ##   ,#'  ##            #'  '#       #        #'  '#        
            ##       ##  #######   ##           ,######,      #####,   #    #        
            '#,     ,#'  ##    ##  '#,     ,#' ,#      #,         ##   #,  ,#        
             '#######'   ##     ##  '#######'  #'      '#     #####' # '####'        



                  #######################################################
                  #                        -***-                        #
                  #          Department of theory and spectroscopy      #
                  #    Directorship and core code : Frank Neese         #
                  #        Max Planck Institute fuer Kohlenforschung    #
                  #                Kaiser Wilhelm Platz 1               #
                  #                 D-45470 Muelheim/Ruhr               #
                  #                      Germany                        #
                  #                                                     #
                  #                  All rights reserved                #
                  #                        -***-                        #
                  #######################################################



                         Program Version 5.0.4 -  RELEASE  -

 With contributions from (in alphabetic order):
   Daniel Aravena         : Magnetic Suceptibility
   Michael Atanasov       : Ab Initio Ligand Field Theory (pilot matlab implementation)
   Alexander A. Auer      : GIAO ZORA, VPT2 properties, NMR spectrum
   Ute Becker             : Parallelization
   Giovanni Bistoni       : ED, misc. LED, open-shell LED, HFLD
   Martin Brehm           : Molecular dynamics
   Dmytro Bykov           : SCF Hessian
   Vijay G. Chilkuri      : MRCI spin determinant printing, contributions to CSF-ICE
   Dipayan Datta          : RHF DLPNO-CCSD density
   Achintya Kumar Dutta   : EOM-CC, STEOM-CC
   Dmitry Ganyushin       : Spin-Orbit,Spin-Spin,Magnetic field MRCI
   Miquel Garcia          : C-PCM and meta-GGA Hessian, CC/C-PCM, Gaussian charge scheme
   Yang Guo               : DLPNO-NEVPT2, F12-NEVPT2, CIM, IAO-localization
   Andreas Hansen         : Spin unrestricted coupled pair/coupled cluster methods
   Benjamin Helmich-Paris : MC-RPA, TRAH-SCF, COSX integrals
   Lee Huntington         : MR-EOM, pCC
   Robert Izsak           : Overlap fitted RIJCOSX, COSX-SCS-MP3, EOM
   Marcus Kettner         : VPT2
   Christian Kollmar      : KDIIS, OOCD, Brueckner-CCSD(T), CCSD density, CASPT2, CASPT2-K
   Simone Kossmann        : Meta GGA functionals, TD-DFT gradient, OOMP2, MP2 Hessian
   Martin Krupicka        : Initial AUTO-CI
   Lucas Lang             : DCDCAS
   Marvin Lechner         : AUTO-CI (C++ implementation), FIC-MRCC
   Dagmar Lenk            : GEPOL surface, SMD
   Dimitrios Liakos       : Extrapolation schemes; Compound Job, initial MDCI parallelization
   Dimitrios Manganas     : Further ROCIS development; embedding schemes
   Dimitrios Pantazis     : SARC Basis sets
   Anastasios Papadopoulos: AUTO-CI, single reference methods and gradients
   Taras Petrenko         : DFT Hessian,TD-DFT gradient, ASA, ECA, R-Raman, ABS, FL, XAS/XES, NRVS
   Peter Pinski           : DLPNO-MP2, DLPNO-MP2 Gradient
   Christoph Reimann      : Effective Core Potentials
   Marius Retegan         : Local ZFS, SOC
   Christoph Riplinger    : Optimizer, TS searches, QM/MM, DLPNO-CCSD(T), (RO)-DLPNO pert. Triples
   Tobias Risthaus        : Range-separated hybrids, TD-DFT gradient, RPA, STAB
   Michael Roemelt        : Original ROCIS implementation
   Masaaki Saitow         : Open-shell DLPNO-CCSD energy and density
   Barbara Sandhoefer     : DKH picture change effects
   Avijit Sen             : IP-ROCIS
   Kantharuban Sivalingam : CASSCF convergence, NEVPT2, FIC-MRCI
   Bernardo de Souza      : ESD, SOC TD-DFT
   Georgi Stoychev        : AutoAux, RI-MP2 NMR, DLPNO-MP2 response
   Willem Van den Heuvel  : Paramagnetic NMR
   Boris Wezisla          : Elementary symmetry handling
   Frank Wennmohs         : Technical directorship


 We gratefully acknowledge several colleagues who have allowed us to
 interface, adapt or use parts of their codes:
   Stefan Grimme, W. Hujo, H. Kruse, P. Pracht,  : VdW corrections, initial TS optimization,
                  C. Bannwarth, S. Ehlert          DFT functionals, gCP, sTDA/sTD-DF
   Ed Valeev, F. Pavosevic, A. Kumar             : LibInt (2-el integral package), F12 methods
   Garnet Chan, S. Sharma, J. Yang, R. Olivares  : DMRG
   Ulf Ekstrom                                   : XCFun DFT Library
   Mihaly Kallay                                 : mrcc  (arbitrary order and MRCC methods)
   Jiri Pittner, Ondrej Demel                    : Mk-CCSD
   Frank Weinhold                                : gennbo (NPA and NBO analysis)
   Christopher J. Cramer and Donald G. Truhlar   : smd solvation model
   Lars Goerigk                                  : TD-DFT with DH, B97 family of functionals
   V. Asgeirsson, H. Jonsson                     : NEB implementation
   FAccTs GmbH                                   : IRC, NEB, NEB-TS, DLPNO-Multilevel, CI-OPT
                                                   MM, QMMM, 2- and 3-layer-ONIOM, Crystal-QMMM,
                                                   LR-CPCM, SF, NACMEs, symmetry and pop. for TD-DFT,
                                                   nearIR, NL-DFT gradient (VV10), updates on ESD,
                                                   ML-optimized integration grids
   S Lehtola, MJT Oliveira, MAL Marques          : LibXC Library
   Liviu Ungur et al                             : ANISO software


 Your calculation uses the libint2 library for the computation of 2-el integrals
 For citations please refer to: http://libint.valeyev.net

 Your ORCA version has been built with support for libXC version: 5.1.0
 For citations please refer to: https://tddft.org/programs/libxc/

 This ORCA versions uses:
   CBLAS   interface :  Fast vector & matrix operations
   LAPACKE interface :  Fast linear algebra routines
   Shared memory     :  Shared parallel matrices


Your calculation utilizes the atom-pairwise dispersion correction
based on tight binding partial charges (D4)
Cite in your paper:
E.Caldeweyher, C.Bannwarth, S.Grimme, J.Chem.Phys., (2017), 147, 034112.
E.Caldeweyher, S.Ehlert, A.Hansen, H.Neugebauer, S.Grimme, J.Chem.Phys., (2018), in progress.
   

================================================================================

----- Orbital basis set information -----
Your calculation utilizes the basis: 6-311G**
   H, Li - Ne  : R. Krishnan, J. S. Binkley, R. Seeger and J. A. Pople, J. Chem. Phys. 72, 650 (1980).
   Na - Ar     : A. D. McLean and G. S. Chandler J. Chem. Phys. 72, 5639, (1980).
   K  - Ca     : J.-P. Blaudeau, M. P. McGrath, L. A. Curtiss and L. Radom, J. Chem. Phys. 107, 5016 (1997).
   Ga - Kr     : L. A. Curtiss, M. P. McGrath, J.-P. Blandeau, N. E. Davis, R. C. Binning and L. Radom, J. Chem. Phys. 103, 6104 (1995).
   Pol./Diff.
   H, Li - Cl  : T. Clark, J. Chandrasekhar and P. v. R. Schleyer, J. Comp. Chem. 4, 294 (1983).
   H - Ne      : M. J. Frisch, J. A. Pople and J. S. Binkley, J. Chem. Phys. 80, 3265 (1984).

----- AuxJ basis set information -----
Your calculation utilizes the auxiliary basis: def2/J
   F. Weigend, Phys. Chem. Chem. Phys. 8, 1057 (2006).

================================================================================
                                        WARNINGS
                       Please study these warnings very carefully!
================================================================================


WARNING: Geometry Optimization
  ===> : Switching off AutoStart
         For restart on a previous wavefunction, please use MOREAD

INFO   : the flag for use of the SHARK integral package has been found!

================================================================================
                                       INPUT FILE
================================================================================
NAME = again_eight_seven_opt.inp
|  1> !b3lyp 6-311g** d4 pal4 opt freq tightscf
|  2> 
|  3> 
|  4> 
|  5> 
|  6> * xyz 0 1
|  7>   C   2.45814372841442     -2.79762432152276     -0.00000935721672
|  8>   C   1.28165018622583     -3.49669397992260     -0.00004049267120
|  9>   C   0.03017414605882     -2.82714149744190     -0.00011725249806
| 10>   C   -1.20273144639335     -3.53456352749896     -0.00015100845725
| 11>   C   -2.39665659376726     -2.87062715688405     -0.00022452639696
| 12>   C   -2.45065899847611     -1.44934467917827     -0.00027014660337
| 13>   C   -3.68551110480012     -0.75377167730970     -0.00034622466913
| 14>   C   -3.73325549081493      0.61639404095496     -0.00038921221751
| 15>   C   -2.54008810516095      1.36783854991550     -0.00035838623256
| 16>   C   -2.35700598835419      2.76186463601592     -0.00039242925878
| 17>   C   -1.29898566663472      3.39044148429585     -0.00036424354529
| 18>   C   0.01285162348956      2.88477145248367     -0.00029057161392
| 19>   C   1.24333710587108      3.57347913638436     -0.00025777864094
| 20>   C   2.42393196182503      2.87645730502049     -0.00018480355988
| 21>   C   2.44443589018069      1.45936607197506     -0.00014130938598
| 22>   C   3.66686782017425      0.73229006448145     -0.00006535708886
| 23>   C   3.67916229317430     -0.63373272158623     -0.00002327412121
| 24>   C   2.46838135174265     -1.37836527496951     -0.00005337391096
| 25>   C   1.23270737339771     -0.68306190907567     -0.00013045198616
| 26>   C   1.21729323638278      0.74242395579856     -0.00017161728796
| 27>   C   -0.02145939069642      1.44377354856862     -0.00025024117537
| 28>   C   -1.25797197801671      0.70904683508363     -0.00028058686329
| 29>   C   -1.23428793656536     -0.71428267284432     -0.00023902186922
| 30>   C   0.01033306611500     -1.40943065654563     -0.00016036632085
| 31>   H   3.40688295147393     -3.32367661827808      0.00005001285726
| 32>   H   1.29004685144018     -4.58147322693060     -0.00000608347828
| 33>   H   -1.17866080904164     -4.61905737503119     -0.00011665379895
| 34>   H   -3.33031471786782     -3.42286952531542     -0.00024960397183
| 35>   H   -4.60465101107322     -1.32966851088993     -0.00037039170930
| 36>   H   -4.68078759715506      1.14070930111139     -0.00044817588434
| 37>   H   1.23586896821948      4.65637764844833     -0.00029079466514
| 38>   H   3.36918037509646      3.40846526495057     -0.00015974848227
| 39>   H   4.59835470973784      1.28815351006007     -0.00004147702617
| 40>   H   4.62030049056291     -1.17312384933370      0.00003542127604
| 41> **                         ****END OF INPUT****
================================================================================

                       *****************************
                       * Geometry Optimization Run *
                       *****************************

Geometry optimization settings:
Update method            Update   .... BFGS
Choice of coordinates    CoordSys .... Z-matrix Internals
Initial Hessian          InHess   .... Almoef's Model

Convergence Tolerances:
Energy Change            TolE     ....  5.0000e-06 Eh
Max. Gradient            TolMAXG  ....  3.0000e-04 Eh/bohr
RMS Gradient             TolRMSG  ....  1.0000e-04 Eh/bohr
Max. Displacement        TolMAXD  ....  4.0000e-03 bohr
RMS Displacement         TolRMSD  ....  2.0000e-03 bohr
Strict Convergence                ....  False
------------------------------------------------------------------------------
                        ORCA OPTIMIZATION COORDINATE SETUP
------------------------------------------------------------------------------

The optimization will be done in new redundant internal coordinates
Making redundant internal coordinates   ...  (new redundants) done
Evaluating the initial hessian          ...  (Almloef) done
Evaluating the coordinates              ...  done
Calculating the B-matrix                .... done
Calculating the G-matrix                .... done
Diagonalizing the G-matrix              .... done
The first mode is                       ....  125
The number of degrees of freedom        ....   96

    -----------------------------------------------------------------
                    Redundant Internal Coordinates


    -----------------------------------------------------------------
         Definition                    Initial Value    Approx d2E/dq
    -----------------------------------------------------------------
      1. B(C   1,C   0)                  1.3685         0.676107   
      2. B(C   2,C   1)                  1.4193         0.560980   
      3. B(C   3,C   2)                  1.4214         0.556637   
      4. B(C   4,C   3)                  1.3661         0.682097   
      5. B(C   5,C   4)                  1.4223         0.554872   
      6. B(C   6,C   5)                  1.4173         0.565218   
      7. B(C   7,C   6)                  1.3710         0.669971   
      8. B(C   8,C   7)                  1.4101         0.580373   
      9. B(C   9,C   8)                  1.4060         0.589137   
     10. B(C  10,C   9)                  1.2307         1.121917   
     11. B(C  11,C  10)                  1.4059         0.589297   
     12. B(C  12,C  11)                  1.4101         0.580300   
     13. B(C  13,C  12)                  1.3710         0.669962   
     14. B(C  14,C  13)                  1.4172         0.565301   
     15. B(C  15,C  14)                  1.4223         0.554859   
     16. B(C  16,C  15)                  1.3661         0.682189   
     17. B(C  17,C  16)                  1.4214         0.556662   
     18. B(C  17,C   0)                  1.4193         0.561046   
     19. B(C  18,C  17)                  1.4179         0.564006   
     20. B(C  19,C  18)                  1.4256         0.548265   
     21. B(C  19,C  14)                  1.4212         0.557081   
     22. B(C  20,C  19)                  1.4235         0.552414   
     23. B(C  20,C  11)                  1.4414         0.517277   
     24. B(C  21,C  20)                  1.4383         0.523160   
     25. B(C  21,C   8)                  1.4415         0.517161   
     26. B(C  22,C  21)                  1.4235         0.552394   
     27. B(C  22,C   5)                  1.4212         0.557089   
     28. B(C  23,C  22)                  1.4256         0.548219   
     29. B(C  23,C  18)                  1.4219         0.555697   
     30. B(C  23,C   2)                  1.4178         0.564035   
     31. B(H  24,C   0)                  1.0848         0.367016   
     32. B(H  25,C   1)                  1.0848         0.367029   
     33. B(H  26,C   3)                  1.0848         0.367098   
     34. B(H  27,C   4)                  1.0848         0.367108   
     35. B(H  28,C   6)                  1.0847         0.367241   
     36. B(H  29,C   7)                  1.0829         0.369584   
     37. B(H  30,C  12)                  1.0829         0.369583   
     38. B(H  31,C  13)                  1.0847         0.367209   
     39. B(H  32,C  15)                  1.0847         0.367131   
     40. B(H  33,C  16)                  1.0848         0.367112   
     41. A(C   1,C   0,C  17)          121.1320         0.433030   
     42. A(C   1,C   0,H  24)          120.2740         0.359296   
     43. A(C  17,C   0,H  24)          118.5940         0.348121   
     44. A(C   0,C   1,C   2)          121.1341         0.433021   
     45. A(C   2,C   1,H  25)          118.5907         0.348116   
     46. A(C   0,C   1,H  25)          120.2752         0.359298   
     47. A(C   3,C   2,C  23)          119.0447         0.418614   
     48. A(C   1,C   2,C  23)          118.9490         0.419195   
     49. A(C   1,C   2,C   3)          122.0062         0.418209   
     50. A(C   2,C   3,H  26)          118.5750         0.347672   
     51. A(C   4,C   3,H  26)          120.3497         0.359850   
     52. A(C   2,C   3,C   4)          121.0752         0.433103   
     53. A(C   5,C   4,H  27)          118.4276         0.347488   
     54. A(C   3,C   4,H  27)          120.3182         0.359852   
     55. A(C   3,C   4,C   5)          121.2542         0.432855   
     56. A(C   4,C   5,C   6)          121.5678         0.418534   
     57. A(C   6,C   5,C  22)          119.4632         0.418831   
     58. A(C   4,C   5,C  22)          118.9689         0.417455   
     59. A(C   5,C   6,H  28)          118.5385         0.348592   
     60. A(C   5,C   6,C   7)          121.3876         0.432897   
     61. A(C   7,C   6,H  28)          120.0739         0.358776   
     62. A(C   6,C   7,C   8)          120.2066         0.434963   
     63. A(C   6,C   7,H  29)          120.9536         0.359165   
     64. A(C   8,C   7,H  29)          118.8398         0.350527   
     65. A(C   7,C   8,C   9)          129.6843         0.425040   
     66. A(C   9,C   8,C  21)          109.7135         0.416382   
     67. A(C   7,C   8,C  21)          120.6022         0.415274   
     68. A(C   8,C   9,C  10)          128.1969         0.479104   
     69. A(C   9,C  10,C  11)          128.2052         0.479128   
     70. A(C  12,C  11,C  20)          120.5999         0.415281   
     71. A(C  10,C  11,C  20)          109.7160         0.416419   
     72. A(C  10,C  11,C  12)          129.6841         0.425051   
     73. A(C  11,C  12,H  30)          118.8408         0.350520   
     74. A(C  11,C  12,C  13)          120.2065         0.434952   
     75. A(C  13,C  12,H  30)          120.9527         0.359164   
     76. A(C  12,C  13,H  31)          120.0706         0.358770   
     77. A(C  12,C  13,C  14)          121.3865         0.432907   
     78. A(C  14,C  13,H  31)          118.5429         0.348595   
     79. A(C  13,C  14,C  15)          121.5722         0.418543   
     80. A(C  15,C  14,C  19)          118.9617         0.417452   
     81. A(C  13,C  14,C  19)          119.4661         0.418841   
     82. A(C  14,C  15,C  16)          121.2589         0.432864   
     83. A(C  16,C  15,H  32)          120.3109         0.359864   
     84. A(C  14,C  15,H  32)          118.4302         0.347490   
     85. A(C  17,C  16,H  33)          118.5902         0.347677   
     86. A(C  15,C  16,C  17)          121.0759         0.433116   
     87. A(C  15,C  16,H  33)          120.3338         0.359860   
     88. A(C  16,C  17,C  18)          119.0423         0.418614   
     89. A(C   0,C  17,C  18)          118.9528         0.419200   
     90. A(C   0,C  17,C  16)          122.0049         0.418221   
     91. A(C  17,C  18,C  19)          119.9856         0.417482   
     92. A(C  19,C  18,C  23)          120.1004         0.416380   
     93. A(C  17,C  18,C  23)          119.9140         0.418484   
     94. A(C  18,C  19,C  20)          120.1369         0.415941   
     95. A(C  14,C  19,C  20)          120.1875         0.417124   
     96. A(C  14,C  19,C  18)          119.6755         0.416564   
     97. A(C  11,C  20,C  19)          118.1534         0.411664   
     98. A(C  19,C  20,C  21)          119.7641         0.412491   
     99. A(C  11,C  20,C  21)          122.0825         0.407715   
    100. A(C  20,C  21,C  22)          119.7652         0.412489   
    101. A(C   8,C  21,C  22)          118.1488         0.411645   
    102. A(C   8,C  21,C  20)          122.0860         0.407699   
    103. A(C  21,C  22,C  23)          120.1376         0.415932   
    104. A(C   5,C  22,C  23)          119.6708         0.416559   
    105. A(C   5,C  22,C  21)          120.1916         0.417122   
    106. A(C  18,C  23,C  22)          120.0957         0.416374   
    107. A(C   2,C  23,C  22)          119.9861         0.417479   
    108. A(C   2,C  23,C  18)          119.9181         0.418488   
    109. D(H  25,C   1,C   0,C  17)   -180.0000         0.032014   
    110. D(H  25,C   1,C   0,H  24)     -0.0000         0.032014   
    111. D(C   2,C   1,C   0,C  17)     -0.0000         0.032014   
    112. D(C   2,C   1,C   0,H  24)    180.0000         0.032014   
    113. D(C  23,C   2,C   1,H  25)    179.9999         0.021559   
    114. D(C   3,C   2,C   1,H  25)     -0.0000         0.021559   
    115. D(C  23,C   2,C   1,C   0)     -0.0001         0.021559   
    116. D(C   3,C   2,C   1,C   0)    180.0000         0.021559   
    117. D(H  26,C   3,C   2,C   1)      0.0000         0.021214   
    118. D(C   4,C   3,C   2,C  23)      0.0000         0.021214   
    119. D(H  26,C   3,C   2,C  23)   -179.9999         0.021214   
    120. D(C   4,C   3,C   2,C   1)    180.0000         0.021214   
    121. D(H  27,C   4,C   3,C   2)    180.0000         0.032629   
    122. D(C   5,C   4,C   3,H  26)    180.0000         0.032629   
    123. D(C   5,C   4,C   3,C   2)      0.0000         0.032629   
    124. D(H  27,C   4,C   3,H  26)     -0.0000         0.032629   
    125. D(C   6,C   5,C   4,H  27)      0.0000         0.021075   
    126. D(C  22,C   5,C   4,H  27)   -180.0000         0.021075   
    127. D(C  22,C   5,C   4,C   3)      0.0000         0.021075   
    128. D(C   6,C   5,C   4,C   3)   -180.0000         0.021075   
    129. D(H  28,C   6,C   5,C   4)     -0.0000         0.021900   
    130. D(H  28,C   6,C   5,C  22)    179.9999         0.021900   
    131. D(C   7,C   6,C   5,C  22)     -0.0001         0.021900   
    132. D(C   7,C   6,C   5,C   4)    180.0000         0.021900   
    133. D(H  29,C   7,C   6,H  28)     -0.0000         0.031392   
    134. D(H  29,C   7,C   6,C   5)    179.9999         0.031392   
    135. D(C   8,C   7,C   6,H  28)   -180.0000         0.031392   
    136. D(C   8,C   7,C   6,C   5)      0.0000         0.031392   
    137. D(C  21,C   8,C   7,C   6)     -0.0000         0.023143   
    138. D(C   9,C   8,C   7,H  29)      0.0000         0.023143   
    139. D(C   9,C   8,C   7,C   6)    180.0000         0.023143   
    140. D(C  21,C   8,C   7,H  29)   -180.0000         0.023143   
    141. D(C  10,C   9,C   8,C  21)      0.0000         0.021673   
    142. D(C  10,C   9,C   8,C   7)   -180.0000         0.021673   
    143. D(C  11,C  10,C   9,C   8)      0.0000         0.079309   
    144. D(C  20,C  11,C  10,C   9)      0.0001         0.021685   
    145. D(C  12,C  11,C  10,C   9)    179.9999         0.021685   
    146. D(H  30,C  12,C  11,C  20)    179.9999         0.023137   
    147. D(H  30,C  12,C  11,C  10)      0.0001         0.023137   
    148. D(C  13,C  12,C  11,C  20)     -0.0001         0.023137   
    149. D(C  13,C  12,C  11,C  10)   -180.0000         0.023137   
    150. D(H  31,C  13,C  12,H  30)     -0.0000         0.031391   
    151. D(H  31,C  13,C  12,C  11)    180.0000         0.031391   
    152. D(C  14,C  13,C  12,H  30)   -180.0000         0.031391   
    153. D(C  14,C  13,C  12,C  11)      0.0000         0.031391   
    154. D(C  19,C  14,C  13,H  31)    179.9999         0.021906   
    155. D(C  19,C  14,C  13,C  12)     -0.0001         0.021906   
    156. D(C  15,C  14,C  13,H  31)      0.0000         0.021906   
    157. D(C  15,C  14,C  13,C  12)   -180.0000         0.021906   
    158. D(H  32,C  15,C  14,C  19)   -179.9999         0.021074   
    159. D(H  32,C  15,C  14,C  13)     -0.0000         0.021074   
    160. D(C  16,C  15,C  14,C  19)      0.0001         0.021074   
    161. D(C  16,C  15,C  14,C  13)    180.0000         0.021074   
    162. D(H  33,C  16,C  15,H  32)      0.0001         0.032639   
    163. D(H  33,C  16,C  15,C  14)   -179.9999         0.032639   
    164. D(C  17,C  16,C  15,H  32)    180.0000         0.032639   
    165. D(C  17,C  16,C  15,C  14)     -0.0000         0.032639   
    166. D(C   0,C  17,C  16,C  15)   -179.9999         0.021216   
    167. D(C  18,C  17,C   0,H  24)   -180.0000         0.021565   
    168. D(C  18,C  17,C   0,C   1)      0.0000         0.021565   
    169. D(C  16,C  17,C   0,H  24)      0.0001         0.021565   
    170. D(C   0,C  17,C  16,H  33)     -0.0000         0.021216   
    171. D(C  16,C  17,C   0,C   1)   -179.9999         0.021565   
    172. D(C  18,C  17,C  16,H  33)   -180.0000         0.021216   
    173. D(C  18,C  17,C  16,C  15)      0.0001         0.021216   
    174. D(C  23,C  18,C  17,C  16)   -179.9999         0.021802   
    175. D(C  23,C  18,C  17,C   0)      0.0001         0.021802   
    176. D(C  19,C  18,C  17,C  16)     -0.0002         0.021802   
    177. D(C  19,C  18,C  17,C   0)    179.9998         0.021802   
    178. D(C  20,C  19,C  18,C  23)     -0.0003         0.020559   
    179. D(C  20,C  19,C  18,C  17)    179.9999         0.020559   
    180. D(C  14,C  19,C  18,C  23)   -180.0000         0.020559   
    181. D(C  14,C  19,C  18,C  17)      0.0003         0.020559   
    182. D(C  20,C  19,C  14,C  15)   -179.9999         0.021250   
    183. D(C  20,C  19,C  14,C  13)      0.0002         0.021250   
    184. D(C  18,C  19,C  14,C  15)     -0.0002         0.021250   
    185. D(C  18,C  19,C  14,C  13)    179.9999         0.021250   
    186. D(C  21,C  20,C  19,C  18)      0.0003         0.020882   
    187. D(C  21,C  20,C  19,C  14)    180.0000         0.020882   
    188. D(C  11,C  20,C  19,C  18)   -180.0000         0.020882   
    189. D(C  11,C  20,C  19,C  14)     -0.0003         0.020882   
    190. D(C  21,C  20,C  11,C  12)    179.9999         0.018244   
    191. D(C  21,C  20,C  11,C  10)     -0.0002         0.018244   
    192. D(C  19,C  20,C  11,C  12)      0.0002         0.018244   
    193. D(C  19,C  20,C  11,C  10)   -179.9999         0.018244   
    194. D(C  22,C  21,C  20,C  19)     -0.0003         0.018670   
    195. D(C  22,C  21,C  20,C  11)    180.0000         0.018670   
    196. D(C   8,C  21,C  20,C  19)    179.9999         0.018670   
    197. D(C   8,C  21,C  20,C  11)      0.0002         0.018670   
    198. D(C  22,C  21,C   8,C   9)   -179.9999         0.018236   
    199. D(C  22,C  21,C   8,C   7)      0.0001         0.018236   
    200. D(C  20,C  21,C   8,C   9)     -0.0001         0.018236   
    201. D(C  20,C  21,C   8,C   7)    179.9999         0.018236   
    202. D(C  23,C  22,C  21,C  20)      0.0003         0.020881   
    203. D(C  23,C  22,C  21,C   8)   -179.9999         0.020881   
    204. D(C   5,C  22,C  21,C  20)   -179.9999         0.020881   
    205. D(C   5,C  22,C  21,C   8)     -0.0002         0.020881   
    206. D(C  23,C  22,C   5,C   6)    179.9999         0.021250   
    207. D(C  23,C  22,C   5,C   4)     -0.0001         0.021250   
    208. D(C  21,C  22,C   5,C   6)      0.0002         0.021250   
    209. D(C  21,C  22,C   5,C   4)   -179.9999         0.021250   
    210. D(C  18,C  23,C  22,C  21)     -0.0003         0.020555   
    211. D(C  18,C  23,C  22,C   5)    179.9999         0.020555   
    212. D(C   2,C  23,C  22,C   5)      0.0002         0.020555   
    213. D(C  22,C  23,C  18,C  19)      0.0003         0.021140   
    214. D(C  22,C  23,C  18,C  17)   -179.9999         0.021140   
    215. D(C   2,C  23,C  18,C  19)   -179.9999         0.021140   
    216. D(C   2,C  23,C  18,C  17)     -0.0002         0.021140   
    217. D(C  22,C  23,C   2,C   3)     -0.0001         0.021804   
    218. D(C   2,C  23,C  22,C  21)    179.9999         0.020555   
    219. D(C  22,C  23,C   2,C   1)    179.9999         0.021804   
    220. D(C  18,C  23,C   2,C   3)   -179.9999         0.021804   
    221. D(C  18,C  23,C   2,C   1)      0.0002         0.021804   
    -----------------------------------------------------------------

Number of atoms                         .... 34
Number of degrees of freedom            .... 221

         *************************************************************
         *                GEOMETRY OPTIMIZATION CYCLE   1            *
         *************************************************************
---------------------------------
CARTESIAN COORDINATES (ANGSTROEM)
---------------------------------
  C      2.458144   -2.797624   -0.000009
  C      1.281650   -3.496694   -0.000040
  C      0.030174   -2.827141   -0.000117
  C     -1.202731   -3.534564   -0.000151
  C     -2.396657   -2.870627   -0.000225
  C     -2.450659   -1.449345   -0.000270
  C     -3.685511   -0.753772   -0.000346
  C     -3.733255    0.616394   -0.000389
  C     -2.540088    1.367839   -0.000358
  C     -2.357006    2.761865   -0.000392
  C     -1.298986    3.390441   -0.000364
  C      0.012852    2.884771   -0.000291
  C      1.243337    3.573479   -0.000258
  C      2.423932    2.876457   -0.000185
  C      2.444436    1.459366   -0.000141
  C      3.666868    0.732290   -0.000065
  C      3.679162   -0.633733   -0.000023
  C      2.468381   -1.378365   -0.000053
  C      1.232707   -0.683062   -0.000130
  C      1.217293    0.742424   -0.000172
  C     -0.021459    1.443774   -0.000250
  C     -1.257972    0.709047   -0.000281
  C     -1.234288   -0.714283   -0.000239
  C      0.010333   -1.409431   -0.000160
  H      3.406883   -3.323677    0.000050
  H      1.290047   -4.581473   -0.000006
  H     -1.178661   -4.619057   -0.000117
  H     -3.330315   -3.422870   -0.000250
  H     -4.604651   -1.329669   -0.000370
  H     -4.680788    1.140709   -0.000448
  H      1.235869    4.656378   -0.000291
  H      3.369180    3.408465   -0.000160
  H      4.598355    1.288154   -0.000041
  H      4.620300   -1.173124    0.000035

----------------------------
CARTESIAN COORDINATES (A.U.)
----------------------------
  NO LB      ZA    FRAG     MASS         X           Y           Z
   0 C     6.0000    0    12.011    4.645218   -5.286744   -0.000018
   1 C     6.0000    0    12.011    2.421968   -6.607794   -0.000077
   2 C     6.0000    0    12.011    0.057021   -5.342523   -0.000222
   3 C     6.0000    0    12.011   -2.272833   -6.679357   -0.000285
   4 C     6.0000    0    12.011   -4.529025   -5.424699   -0.000424
   5 C     6.0000    0    12.011   -4.631074   -2.738865   -0.000511
   6 C     6.0000    0    12.011   -6.964607   -1.424422   -0.000654
   7 C     6.0000    0    12.011   -7.054830    1.164816   -0.000736
   8 C     6.0000    0    12.011   -4.800071    2.584840   -0.000677
   9 C     6.0000    0    12.011   -4.454096    5.219168   -0.000742
  10 C     6.0000    0    12.011   -2.454727    6.407006   -0.000688
  11 C     6.0000    0    12.011    0.024286    5.451428   -0.000549
  12 C     6.0000    0    12.011    2.349567    6.752897   -0.000487
  13 C     6.0000    0    12.011    4.580568    5.435717   -0.000349
  14 C     6.0000    0    12.011    4.619314    2.757802   -0.000267
  15 C     6.0000    0    12.011    6.929376    1.383828   -0.000124
  16 C     6.0000    0    12.011    6.952609   -1.197581   -0.000044
  17 C     6.0000    0    12.011    4.664565   -2.604733   -0.000101
  18 C     6.0000    0    12.011    2.329479   -1.290800   -0.000247
  19 C     6.0000    0    12.011    2.300351    1.402978   -0.000324
  20 C     6.0000    0    12.011   -0.040552    2.728337   -0.000473
  21 C     6.0000    0    12.011   -2.377223    1.339904   -0.000530
  22 C     6.0000    0    12.011   -2.332466   -1.349799   -0.000452
  23 C     6.0000    0    12.011    0.019527   -2.663438   -0.000303
  24 H     1.0000    0     1.008    6.438076   -6.280839    0.000095
  25 H     1.0000    0     1.008    2.437835   -8.657730   -0.000011
  26 H     1.0000    0     1.008   -2.227346   -8.728753   -0.000220
  27 H     1.0000    0     1.008   -6.293383   -6.468286   -0.000472
  28 H     1.0000    0     1.008   -8.701529   -2.512709   -0.000700
  29 H     1.0000    0     1.008   -8.845407    2.155628   -0.000847
  30 H     1.0000    0     1.008    2.335454    8.799279   -0.000550
  31 H     1.0000    0     1.008    6.366828    6.441066   -0.000302
  32 H     1.0000    0     1.008    8.689631    2.434257   -0.000078
  33 H     1.0000    0     1.008    8.731103   -2.216883    0.000067

--------------------------------
INTERNAL COORDINATES (ANGSTROEM)
--------------------------------
 C      0   0   0     0.000000000000     0.00000000     0.00000000
 C      1   0   0     1.368515781084     0.00000000     0.00000000
 C      2   1   0     1.419328295991   121.13408258     0.00000000
 C      3   2   1     1.421443677973   122.00623050   179.99998338
 C      4   3   2     1.366114478059   121.07522964   179.99997634
 C      5   4   3     1.422308033876   121.25417553     0.00000000
 C      6   5   4     1.417279623507   121.56782305   180.00001090
 C      7   6   5     1.370997309899   121.38758945   179.99996085
 C      8   7   6     1.410077040869   120.20659621     0.00000000
 C      9   8   7     1.405997080858   129.68432540   179.99996597
 C     10   9   8     1.230656676803   128.19685099   180.00001739
 C     11  10   9     1.405922921878   128.20516721     0.00000000
 C     12  11  10     1.410110916663   129.68407795   179.99993333
 C     13  12  11     1.371000967406   120.20653176   180.00004255
 C     14  13  12     1.417239561875   121.38650923     0.00000000
 C     15  14  13     1.422314785801   121.57222040   180.00001090
 C     16  15  14     1.366078111930   121.25892351   179.99997611
 C      1   2   3     1.419295970576   121.13196831     0.00000000
 C     18   1   2     1.417863518581   118.95280432     0.00000000
 C     15  14  13     1.421226615159   119.46609578     0.00000000
 C     20  15  14     1.423516536102   120.18753466     0.00000000
 C     21  20  15     1.438327752298   119.76411567   179.99998986
 C      6   5   4     1.421222964344   118.96894048     0.00000000
 C      3   2   1     1.417849674227   118.94904775     0.00000000
 H      1   2   3     1.084821246021   120.27404123   179.99996278
 H      2   1   3     1.084811743995   120.27519501   180.00003268
 H      4   3   2     1.084760942373   118.57504587     0.00000000
 H      5   4   3     1.084753025725   120.31819372   180.00000000
 H      7   6   5     1.084654475313   118.53847846     0.00000000
 H      8   7   6     1.082923629835   120.95357739   179.99994645
 H     13  12  11     1.082924264019   118.84078495     0.00000000
 H     14  13  12     1.084678308462   120.07061810   179.99999717
 H     16  15  14     1.084735910777   118.43015725     0.00000000
 H     17  16  15     1.084750615912   120.33381911   180.00005141

---------------------------
INTERNAL COORDINATES (A.U.)
---------------------------
 C      0   0   0     0.000000000000     0.00000000     0.00000000
 C      1   0   0     2.586120036198     0.00000000     0.00000000
 C      2   1   0     2.682141773548   121.13408258     0.00000000
 C      3   2   1     2.686139266163   122.00623050   179.99998338
 C      4   3   2     2.581582231116   121.07522964   179.99997634
 C      5   4   3     2.687772662102   121.25417553     0.00000000
 C      6   5   4     2.678270343616   121.56782305   180.00001090
 C      7   6   5     2.590809446053   121.38758945   179.99996085
 C      8   7   6     2.664659434972   120.20659621     0.00000000
 C      9   8   7     2.656949427915   129.68432540   179.99996597
 C     10   9   8     2.325604084039   128.19685099   180.00001739
 C     11  10   9     2.656809287751   128.20516721     0.00000000
 C     12  11  10     2.664723450945   129.68407795   179.99993333
 C     13  12  11     2.590816357738   120.20653176   180.00004255
 C     14  13  12     2.678194638103   121.38650923     0.00000000
 C     15  14  13     2.687785421392   121.57222040   180.00001090
 C     16  15  14     2.581513509091   121.25892351   179.99997611
 C      1   2   3     2.682080687366   121.13196831     0.00000000
 C     18   1   2     2.679373745396   118.95280432     0.00000000
 C     15  14  13     2.685729076890   119.46609578     0.00000000
 C     20  15  14     2.690056400341   120.18753466     0.00000000
 C     21  20  15     2.718045542662   119.76411567   179.99998986
 C      6   5   4     2.685722177850   118.96894048     0.00000000
 C      3   2   1     2.679347583359   118.94904775     0.00000000
 H      1   2   3     2.050015059238   120.27404123   179.99996278
 H      2   1   3     2.049997103012   120.27519501   180.00003268
 H      4   3   2     2.049901101859   118.57504587     0.00000000
 H      5   4   3     2.049886141562   120.31819372   180.00000000
 H      7   6   5     2.049699908273   118.53847846     0.00000000
 H      8   7   6     2.046429084340   120.95357739   179.99994645
 H     13  12  11     2.046430282774   118.84078495     0.00000000
 H     14  13  12     2.049744946399   120.07061810   179.99999717
 H     16  15  14     2.049853798999   118.43015725     0.00000000
 H     17  16  15     2.049881587676   120.33381911   180.00005141

---------------------
BASIS SET INFORMATION
---------------------
There are 2 groups of distinct atoms

 Group   1 Type C   : 11s5p1d contracted to 4s3p1d pattern {6311/311/1}
 Group   2 Type H   : 5s1p contracted to 3s1p pattern {311/1}

Atom   0C    basis set group =>   1
Atom   1C    basis set group =>   1
Atom   2C    basis set group =>   1
Atom   3C    basis set group =>   1
Atom   4C    basis set group =>   1
Atom   5C    basis set group =>   1
Atom   6C    basis set group =>   1
Atom   7C    basis set group =>   1
Atom   8C    basis set group =>   1
Atom   9C    basis set group =>   1
Atom  10C    basis set group =>   1
Atom  11C    basis set group =>   1
Atom  12C    basis set group =>   1
Atom  13C    basis set group =>   1
Atom  14C    basis set group =>   1
Atom  15C    basis set group =>   1
Atom  16C    basis set group =>   1
Atom  17C    basis set group =>   1
Atom  18C    basis set group =>   1
Atom  19C    basis set group =>   1
Atom  20C    basis set group =>   1
Atom  21C    basis set group =>   1
Atom  22C    basis set group =>   1
Atom  23C    basis set group =>   1
Atom  24H    basis set group =>   2
Atom  25H    basis set group =>   2
Atom  26H    basis set group =>   2
Atom  27H    basis set group =>   2
Atom  28H    basis set group =>   2
Atom  29H    basis set group =>   2
Atom  30H    basis set group =>   2
Atom  31H    basis set group =>   2
Atom  32H    basis set group =>   2
Atom  33H    basis set group =>   2
---------------------------------
AUXILIARY/J BASIS SET INFORMATION
---------------------------------
There are 2 groups of distinct atoms

 Group   1 Type C   : 12s5p4d2f1g contracted to 6s4p3d1f1g pattern {711111/2111/211/2/1}
 Group   2 Type H   : 5s2p1d contracted to 3s1p1d pattern {311/2/1}

Atom   0C    basis set group =>   1
Atom   1C    basis set group =>   1
Atom   2C    basis set group =>   1
Atom   3C    basis set group =>   1
Atom   4C    basis set group =>   1
Atom   5C    basis set group =>   1
Atom   6C    basis set group =>   1
Atom   7C    basis set group =>   1
Atom   8C    basis set group =>   1
Atom   9C    basis set group =>   1
Atom  10C    basis set group =>   1
Atom  11C    basis set group =>   1
Atom  12C    basis set group =>   1
Atom  13C    basis set group =>   1
Atom  14C    basis set group =>   1
Atom  15C    basis set group =>   1
Atom  16C    basis set group =>   1
Atom  17C    basis set group =>   1
Atom  18C    basis set group =>   1
Atom  19C    basis set group =>   1
Atom  20C    basis set group =>   1
Atom  21C    basis set group =>   1
Atom  22C    basis set group =>   1
Atom  23C    basis set group =>   1
Atom  24H    basis set group =>   2
Atom  25H    basis set group =>   2
Atom  26H    basis set group =>   2
Atom  27H    basis set group =>   2
Atom  28H    basis set group =>   2
Atom  29H    basis set group =>   2
Atom  30H    basis set group =>   2
Atom  31H    basis set group =>   2
Atom  32H    basis set group =>   2
Atom  33H    basis set group =>   2


           ************************************************************
           *        Program running with 4 parallel MPI-processes     *
           *              working on a common directory               *
           ************************************************************
------------------------------------------------------------------------------
                           ORCA GTO INTEGRAL CALCULATION
                           -- RI-GTO INTEGRALS CHOSEN --
------------------------------------------------------------------------------
------------------------------------------------------------------------------
                   ___                                                        
                  /   \      - P O W E R E D   B Y -                         
                 /     \                                                     
                 |  |  |   _    _      __       _____    __    __             
                 |  |  |  | |  | |    /  \     |  _  \  |  |  /  |          
                  \  \/   | |  | |   /    \    | | | |  |  | /  /          
                 / \  \   | |__| |  /  /\  \   | |_| |  |  |/  /          
                |  |  |   |  __  | /  /__\  \  |    /   |      \           
                |  |  |   | |  | | |   __   |  |    \   |  |\   \          
                \     /   | |  | | |  |  |  |  | |\  \  |  | \   \       
                 \___/    |_|  |_| |__|  |__|  |_| \__\ |__|  \__/        
                                                                              
                      - O R C A' S   B I G   F R I E N D -                    
                                      &                                       
                       - I N T E G R A L  F E E D E R -                       
                                                                              
 v1 FN, 2020, v2 2021                                                         
------------------------------------------------------------------------------


Reading SHARK input file again_five_six_opt.SHARKINP.tmp ... ok
----------------------
SHARK INTEGRAL PACKAGE
----------------------

Number of atoms                             ...     34
Number of basis functions                   ...    492
Number of shells                            ...    232
Maximum angular momentum                    ...      2
Integral batch strategy                     ... SHARK/LIBINT Hybrid
RI-J (if used) integral strategy            ... SPLIT-RIJ (Revised 2003 algorithm where possible)
Printlevel                                  ...      1
Contraction scheme used                     ... SEGMENTED contraction
Coulomb Range Separation                    ... NOT USED
Exchange Range Separation                   ... NOT USED
Finite Nucleus Model                        ... NOT USED
Auxiliary Coulomb fitting basis             ... AVAILABLE
   # of basis functions in Aux-J            ...   1286
   # of shells in Aux-J                     ...    410
   Maximum angular momentum in Aux-J        ...      4
Auxiliary J/K fitting basis                 ... NOT available
Auxiliary Correlation fitting basis         ... NOT available
Auxiliary 'external' fitting basis          ... NOT available
Integral threshold                          ...     2.500000e-11
Primitive cut-off                           ...     2.500000e-12
Primitive pair pre-selection threshold      ...     2.500000e-12

Calculating pre-screening integrals         ... done (  0.1 sec) Dimension = 232
Organizing shell pair data                  ... done (  0.1 sec)
Shell pair information
Total number of shell pairs                 ...     27028
Shell pairs after pre-screening             ...     19467
Total number of primitive shell pairs       ...    110280
Primitive shell pairs kept                  ...     47761
          la=0 lb=0:   5437 shell pairs
          la=1 lb=0:   7564 shell pairs
          la=1 lb=1:   2629 shell pairs
          la=2 lb=0:   2096 shell pairs
          la=2 lb=1:   1504 shell pairs
          la=2 lb=2:    237 shell pairs

Calculating one electron integrals          ... done (  0.0 sec)
Calculating RI/J V-Matrix + Cholesky decomp.... done (  0.1 sec)
Calculating Nuclear repulsion               ... done (  0.0 sec) ENN=   1797.851936574475 Eh

SHARK setup successfully completed in   0.5 seconds

Maximum memory used throughout the entire GTOINT-calculation: 32.6 MB


           ************************************************************
           *        Program running with 4 parallel MPI-processes     *
           *              working on a common directory               *
           ************************************************************
-------------------------------------------------------------------------------
                                 ORCA SCF
-------------------------------------------------------------------------------

------------
SCF SETTINGS
------------
Hamiltonian:
 Density Functional     Method          .... DFT(GTOs)
 Exchange Functional    Exchange        .... B88
   X-Alpha parameter    XAlpha          ....  0.666667
   Becke's b parameter  XBeta           ....  0.004200
 Correlation Functional Correlation     .... LYP
 LDA part of GGA corr.  LDAOpt          .... VWN-5
 Gradients option       PostSCFGGA      .... off
 Hybrid DFT is turned on
   Fraction HF Exchange ScalHFX         ....  0.200000
   Scaling of DF-GGA-X  ScalDFX         ....  0.720000
   Scaling of DF-GGA-C  ScalDFC         ....  0.810000
   Scaling of DF-LDA-C  ScalLDAC        ....  1.000000
   Perturbative correction              ....  0.000000
   Density functional embedding theory  .... OFF
   NL short-range parameter             ....  4.800000
 RI-approximation to the Coulomb term is turned on
   Number of AuxJ basis functions       .... 1286
   RIJ-COSX (HFX calculated with COS-X)).... on


General Settings:
 Integral files         IntName         .... again_five_six_opt
 Hartree-Fock type      HFTyp           .... RHF
 Total Charge           Charge          ....    0
 Multiplicity           Mult            ....    1
 Number of Electrons    NEL             ....  154
 Basis Dimension        Dim             ....  492
 Nuclear Repulsion      ENuc            ....   1797.8519365745 Eh

Convergence Acceleration:
 DIIS                   CNVDIIS         .... on
   Start iteration      DIISMaxIt       ....    12
   Startup error        DIISStart       ....  0.200000
   # of expansion vecs  DIISMaxEq       ....     5
   Bias factor          DIISBfac        ....   1.050
   Max. coefficient     DIISMaxC        ....  10.000
 Trust-Rad. Augm. Hess. CNVTRAH         .... auto
   Auto Start mean grad. ratio tolernc. ....  1.125000
   Auto Start start iteration           ....    20
   Auto Start num. interpolation iter.  ....    10
   Max. Number of Micro iterations      ....    16
   Max. Number of Macro iterations      .... Maxiter - #DIIS iter
   Number of Davidson start vectors     ....     2
   Converg. threshold I  (grad. norm)   ....   1.000e-05
   Converg. threshold II (energy diff.) ....   1.000e-08
   Grad. Scal. Fac. for Micro threshold ....   0.100
   Minimum threshold for Micro iter.    ....   0.010
   NR start threshold (gradient norm)   ....   0.001
   Initial trust radius                 ....   0.400
   Minimum AH scaling param. (alpha)    ....   1.000
   Maximum AH scaling param. (alpha)    .... 1000.000
   Orbital update algorithm             .... Taylor
   White noise on init. David. guess    .... on
   Maximum white noise                  ....   0.010
   Quad. conv. algorithm                .... NR
 SOSCF                  CNVSOSCF        .... on
   Start iteration      SOSCFMaxIt      ....   150
   Startup grad/error   SOSCFStart      ....  0.003300
 Level Shifting         CNVShift        .... on
   Level shift para.    LevelShift      ....    0.2500
   Turn off err/grad.   ShiftErr        ....    0.0010
 Zerner damping         CNVZerner       .... off
 Static damping         CNVDamp         .... on
   Fraction old density DampFac         ....    0.7000
   Max. Damping (<1)    DampMax         ....    0.9800
   Min. Damping (>=0)   DampMin         ....    0.0000
   Turn off err/grad.   DampErr         ....    0.1000
 Fernandez-Rico         CNVRico         .... off

SCF Procedure:
 Maximum # iterations   MaxIter         ....   125
 SCF integral mode      SCFMode         .... Direct
   Integral package                     .... SHARK and LIBINT hybrid scheme
 Reset frequency        DirectResetFreq ....    20
 Integral Threshold     Thresh          ....  2.500e-11 Eh
 Primitive CutOff       TCut            ....  2.500e-12 Eh

Convergence Tolerance:
 Convergence Check Mode ConvCheckMode   .... Total+1el-Energy
 Convergence forced     ConvForced      .... 0
 Energy Change          TolE            ....  1.000e-08 Eh
 1-El. energy change                    ....  1.000e-05 Eh
 Orbital Gradient       TolG            ....  1.000e-05
 Orbital Rotation angle TolX            ....  1.000e-05
 DIIS Error             TolErr          ....  5.000e-07


Diagonalization of the overlap matrix:
Smallest eigenvalue                        ... 1.837e-05
Time for diagonalization                   ...    0.023 sec
Threshold for overlap eigenvalues          ... 1.000e-08
Number of eigenvalues below threshold      ... 0
Time for construction of square roots      ...    0.024 sec
Total time needed                          ...    0.048 sec

Time for model grid setup =    0.492 sec

------------------------------
INITIAL GUESS: MODEL POTENTIAL
------------------------------
Loading Hartree-Fock densities                     ... done
Calculating cut-offs                               ... done
Initializing the effective Hamiltonian             ... done
Setting up the integral package (SHARK)            ... done
Starting the Coulomb interaction                   ... done (   0.6 sec)
Reading the grid                                   ... done
Mapping shells                                     ... done
Starting the XC term evaluation                    ... done (   0.4 sec)
  promolecular density results
     # of electrons  =    153.982497134
     EX              =   -126.475089350
     EC              =     -5.263055808
     EX+EC           =   -131.738145158
Transforming the Hamiltonian                       ... done (   0.0 sec)
Diagonalizing the Hamiltonian                      ... done (   0.0 sec)
Back transforming the eigenvectors                 ... done (   0.0 sec)
Now organizing SCF variables                       ... done
                      ------------------
                      INITIAL GUESS DONE (   1.6 sec)
                      ------------------
-------------------
DFT GRID GENERATION
-------------------

General Integration Accuracy     IntAcc      ... 4.388
Radial Grid Type                 RadialGrid  ... OptM3 with GC (2021)
Angular Grid (max. ang.)         AngularGrid ... 4 (Lebedev-302)
Angular grid pruning method      GridPruning ... 4 (adaptive)
Weight generation scheme         WeightScheme... Becke
Basis function cutoff            BFCut       ... 1.0000e-11
Integration weight cutoff        WCut        ... 1.0000e-14
Angular grids for H and He will be reduced by one unit
Partially contracted basis set               ... off
Rotationally invariant grid construction     ... off

Total number of grid points                  ...   174245
Total number of batches                      ...     2738
Average number of points per batch           ...       63
Average number of grid points per atom       ...     5125
Time for grid setup =    1.679 sec

--------------------
COSX GRID GENERATION
--------------------

GRIDX 1
-------
General Integration Accuracy     IntAcc      ... 3.816
Radial Grid Type                 RadialGrid  ... OptM3 with GC (2021)
Angular Grid (max. ang.)         AngularGrid ... 1 (Lebedev-50)
Angular grid pruning method      GridPruning ... 4 (adaptive)
Weight generation scheme         WeightScheme... Becke
Basis function cutoff            BFCut       ... 1.0000e-11
Integration weight cutoff        WCut        ... 1.0000e-14
Angular grids for H and He will be reduced by one unit
Partially contracted basis set               ... on
Rotationally invariant grid construction     ... off

Total number of grid points                  ...    22167
Total number of batches                      ...      361
Average number of points per batch           ...       61
Average number of grid points per atom       ...      652
UseSFitting                                  ... on

GRIDX 2
-------
General Integration Accuracy     IntAcc      ... 4.020
Radial Grid Type                 RadialGrid  ... OptM3 with GC (2021)
Angular Grid (max. ang.)         AngularGrid ... 2 (Lebedev-110)
Angular grid pruning method      GridPruning ... 4 (adaptive)
Weight generation scheme         WeightScheme... Becke
Basis function cutoff            BFCut       ... 1.0000e-11
Integration weight cutoff        WCut        ... 1.0000e-14
Angular grids for H and He will be reduced by one unit
Partially contracted basis set               ... on
Rotationally invariant grid construction     ... off

Total number of grid points                  ...    49077
Total number of batches                      ...      787
Average number of points per batch           ...       62
Average number of grid points per atom       ...     1443
UseSFitting                                  ... on

GRIDX 3
-------
General Integration Accuracy     IntAcc      ... 4.338
Radial Grid Type                 RadialGrid  ... OptM3 with GC (2021)
Angular Grid (max. ang.)         AngularGrid ... 3 (Lebedev-194)
Angular grid pruning method      GridPruning ... 4 (adaptive)
Weight generation scheme         WeightScheme... Becke
Basis function cutoff            BFCut       ... 1.0000e-11
Integration weight cutoff        WCut        ... 1.0000e-14
Angular grids for H and He will be reduced by one unit
Partially contracted basis set               ... on
Rotationally invariant grid construction     ... off

Total number of grid points                  ...   108006
Total number of batches                      ...     1704
Average number of points per batch           ...       63
Average number of grid points per atom       ...     3177
UseSFitting                                  ... on

Time for X-Grid setup             =    1.976 sec

--------------
SCF ITERATIONS
--------------
ITER       Energy         Delta-E        Max-DP      RMS-DP      [F,P]     Damp
               ***  Starting incremental Fock matrix formation  ***
  0   -919.7991833230   0.000000000000 0.05537329  0.00123155  0.1465343 0.7000
  1   -919.9629318301  -0.163748507124 0.04043421  0.00095441  0.0803677 0.7000
                               ***Turning on DIIS***
  2   -920.0437621727  -0.080830342550 0.08184445  0.00195390  0.0392217 0.0000
  3   -920.1630546931  -0.119292520444 0.01937889  0.00049689  0.0406993 0.0000
  4   -920.1875624352  -0.024507742036 0.00637493  0.00016154  0.0075243 0.0000
                      *** Initiating the SOSCF procedure ***
                           *** Shutting down DIIS ***
                      *** Re-Reading the Fockian *** 
                      *** Removing any level shift *** 
ITER      Energy       Delta-E        Grad      Rot      Max-DP    RMS-DP
  5   -920.18852977  -0.0009673356  0.000556  0.000556  0.001334  0.000047
               *** Restarting incremental Fock matrix formation ***
  6   -920.18864756  -0.0001177870  0.000223  0.001166  0.001769  0.000048
  7   -920.18864367   0.0000038880  0.000395  0.000881  0.000801  0.000015
  8   -920.18865470  -0.0000110283  0.000084  0.000337  0.000351  0.000011
  9   -920.18865466   0.0000000375  0.000089  0.000152  0.000154  0.000003
 10   -920.18865530  -0.0000006380  0.000059  0.000240  0.000153  0.000003
 11   -920.18865518   0.0000001197  0.000136  0.000193  0.000102  0.000001
 12   -920.18865536  -0.0000001841  0.000021  0.000049  0.000053  0.000001
 13   -920.18865532   0.0000000417  0.000018  0.000030  0.000033  0.000001
 14   -920.18865537  -0.0000000499  0.000003  0.000015  0.000011  0.000000
 15   -920.18865537   0.0000000008  0.000005  0.000010  0.000007  0.000000
                  ***Gradient check signals convergence***
              ***Rediagonalizing the Fockian in SOSCF/NRSCF***

               *****************************************************
               *                     SUCCESS                       *
               *           SCF CONVERGED AFTER  16 CYCLES          *
               *****************************************************

Old exchange energy                            =    -25.639391273 Eh
New exchange energy                            =    -25.639458518 Eh
Exchange energy change after final integration =     -0.000067245 Eh
Total energy after final integration           =   -920.188722611 Eh
Final COS-X integration done in                =    32.104 sec

----------------
TOTAL SCF ENERGY
----------------

Total Energy       :         -920.18872261 Eh          -25039.60813 eV

Components:
Nuclear Repulsion  :         1797.85193657 Eh           48922.03834 eV
Electronic Energy  :        -2718.04065919 Eh          -73961.64647 eV
One Electron Energy:        -4815.10413794 Eh         -131025.64481 eV
Two Electron Energy:         2097.06347876 Eh           57063.99833 eV
Max COSX asymmetry :            0.00000183 Eh               0.00005 eV

Virial components:
Potential Energy   :        -1837.18419631 Eh          -49992.32354 eV
Kinetic Energy     :          916.99547370 Eh           24952.71541 eV
Virial Ratio       :            2.00348230


DFT components:
N(Alpha)           :       77.000190510299 electrons
N(Beta)            :       77.000190510299 electrons
N(Total)           :      154.000381020598 electrons
E(X)               :     -101.892073907503 Eh       
E(C)               :       -6.196019971650 Eh       
E(XC)              :     -108.088093879152 Eh       
DFET-embed. en.    :        0.000000000000 Eh       

---------------
SCF CONVERGENCE
---------------

  Last Energy change         ...    4.1119e-09  Tolerance :   1.0000e-08
  Last MAX-Density change    ...    1.6653e-15  Tolerance :   1.0000e-07
  Last RMS-Density change    ...    2.0312e-17  Tolerance :   5.0000e-09
  Last Orbital Gradient      ...    3.7483e-07  Tolerance :   1.0000e-05
  Last Orbital Rotation      ...    2.4768e-06  Tolerance :   1.0000e-05

             **** THE GBW FILE WAS UPDATED (again_five_six_opt.gbw) ****
             **** DENSITY again_five_six_opt.scfp WAS UPDATED ****
             **** ENERGY FILE WAS UPDATED (again_five_six_opt.en.tmp) ****
             **** THE GBW FILE WAS UPDATED (again_five_six_opt.gbw) ****
             **** DENSITY again_five_six_opt.scfp WAS UPDATED ****
----------------
ORBITAL ENERGIES
----------------

  NO   OCC          E(Eh)            E(eV) 
   0   2.0000     -10.211173      -277.8601 
   1   2.0000     -10.211155      -277.8597 
   2   2.0000     -10.198158      -277.5060 
   3   2.0000     -10.197765      -277.4953 
   4   2.0000     -10.193065      -277.3674 
   5   2.0000     -10.193059      -277.3672 
   6   2.0000     -10.190486      -277.2972 
   7   2.0000     -10.190468      -277.2967 
   8   2.0000     -10.190436      -277.2959 
   9   2.0000     -10.190075      -277.2860 
  10   2.0000     -10.189543      -277.2716 
  11   2.0000     -10.189496      -277.2703 
  12   2.0000     -10.182985      -277.0931 
  13   2.0000     -10.182977      -277.0929 
  14   2.0000     -10.182172      -277.0710 
  15   2.0000     -10.182165      -277.0708 
  16   2.0000     -10.181020      -277.0396 
  17   2.0000     -10.180842      -277.0348 
  18   2.0000     -10.180826      -277.0344 
  19   2.0000     -10.180372      -277.0220 
  20   2.0000     -10.180117      -277.0151 
  21   2.0000     -10.180103      -277.0147 
  22   2.0000     -10.176551      -276.9180 
  23   2.0000     -10.174610      -276.8652 
  24   2.0000      -0.915739       -24.9185 
  25   2.0000      -0.880388       -23.9566 
  26   2.0000      -0.878658       -23.9095 
  27   2.0000      -0.833089       -22.6695 
  28   2.0000      -0.831772       -22.6337 
  29   2.0000      -0.813925       -22.1480 
  30   2.0000      -0.785529       -21.3753 
  31   2.0000      -0.768921       -20.9234 
  32   2.0000      -0.753263       -20.4973 
  33   2.0000      -0.746151       -20.3038 
  34   2.0000      -0.720285       -19.6000 
  35   2.0000      -0.720178       -19.5970 
  36   2.0000      -0.644296       -17.5322 
  37   2.0000      -0.643485       -17.5101 
  38   2.0000      -0.639728       -17.4079 
  39   2.0000      -0.631509       -17.1842 
  40   2.0000      -0.628903       -17.1133 
  41   2.0000      -0.571876       -15.5615 
  42   2.0000      -0.555501       -15.1160 
  43   2.0000      -0.546041       -14.8585 
  44   2.0000      -0.540321       -14.7029 
  45   2.0000      -0.533185       -14.5087 
  46   2.0000      -0.522125       -14.2077 
  47   2.0000      -0.484724       -13.1900 
  48   2.0000      -0.480555       -13.0766 
  49   2.0000      -0.468775       -12.7560 
  50   2.0000      -0.464297       -12.6342 
  51   2.0000      -0.457526       -12.4499 
  52   2.0000      -0.445628       -12.1261 
  53   2.0000      -0.435667       -11.8551 
  54   2.0000      -0.433431       -11.7943 
  55   2.0000      -0.428363       -11.6563 
  56   2.0000      -0.418516       -11.3884 
  57   2.0000      -0.418095       -11.3769 
  58   2.0000      -0.407444       -11.0871 
  59   2.0000      -0.395434       -10.7603 
  60   2.0000      -0.392984       -10.6936 
  61   2.0000      -0.385101       -10.4791 
  62   2.0000      -0.382756       -10.4153 
  63   2.0000      -0.373120       -10.1531 
  64   2.0000      -0.368631       -10.0310 
  65   2.0000      -0.341418        -9.2905 
  66   2.0000      -0.339487        -9.2379 
  67   2.0000      -0.334032        -9.0895 
  68   2.0000      -0.331786        -9.0284 
  69   2.0000      -0.324309        -8.8249 
  70   2.0000      -0.280629        -7.6363 
  71   2.0000      -0.276138        -7.5141 
  72   2.0000      -0.269718        -7.3394 
  73   2.0000      -0.260456        -7.0874 
  74   2.0000      -0.258515        -7.0346 
  75   2.0000      -0.213669        -5.8142 
  76   2.0000      -0.211647        -5.7592 
  77   0.0000      -0.075954        -2.0668 
  78   0.0000      -0.067117        -1.8263 
  79   0.0000      -0.060237        -1.6391 
  80   0.0000      -0.026097        -0.7101 
  81   0.0000      -0.020946        -0.5700 
  82   0.0000      -0.006532        -0.1777 
  83   0.0000       0.017497         0.4761 
  84   0.0000       0.045410         1.2357 
  85   0.0000       0.052926         1.4402 
  86   0.0000       0.057861         1.5745 
  87   0.0000       0.059939         1.6310 
  88   0.0000       0.070076         1.9069 
  89   0.0000       0.080732         2.1968 
  90   0.0000       0.081402         2.2150 
  91   0.0000       0.091261         2.4833 
  92   0.0000       0.095590         2.6011 
  93   0.0000       0.105265         2.8644 
  94   0.0000       0.121793         3.3141 
  95   0.0000       0.138296         3.7632 
  96   0.0000       0.156708         4.2642 
  97   0.0000       0.165100         4.4926 
  98   0.0000       0.179934         4.8963 
  99   0.0000       0.187018         5.0890 
 100   0.0000       0.217169         5.9095 
 101   0.0000       0.218524         5.9464 
 102   0.0000       0.225927         6.1478 
 103   0.0000       0.242410         6.5963 
 104   0.0000       0.247046         6.7225 
 105   0.0000       0.251336         6.8392 
 106   0.0000       0.257876         7.0172 
 107   0.0000       0.260141         7.0788 
 108   0.0000       0.260815         7.0971 
 109   0.0000       0.272903         7.4261 
 110   0.0000       0.283389         7.7114 
 111   0.0000       0.287348         7.8191 
 112   0.0000       0.299083         8.1385 
 113   0.0000       0.300940         8.1890 
 114   0.0000       0.307227         8.3601 
 115   0.0000       0.314684         8.5630 
 116   0.0000       0.351679         9.5697 
 117   0.0000       0.359743         9.7891 
 118   0.0000       0.361489         9.8366 
 119   0.0000       0.361730         9.8432 
 120   0.0000       0.371365        10.1053 
 121   0.0000       0.375108        10.2072 
 122   0.0000       0.377226        10.2648 
 123   0.0000       0.378082        10.2881 
 124   0.0000       0.378277        10.2934 
 125   0.0000       0.383761        10.4427 
 126   0.0000       0.390986        10.6393 
 127   0.0000       0.392693        10.6857 
 128   0.0000       0.401855        10.9350 
 129   0.0000       0.407468        11.0878 
 130   0.0000       0.408704        11.1214 
 131   0.0000       0.413352        11.2479 
 132   0.0000       0.414755        11.2861 
 133   0.0000       0.415832        11.3154 
 134   0.0000       0.417271        11.3545 
 135   0.0000       0.431064        11.7299 
 136   0.0000       0.434074        11.8117 
 137   0.0000       0.441482        12.0133 
 138   0.0000       0.446061        12.1379 
 139   0.0000       0.448491        12.2041 
 140   0.0000       0.451332        12.2814 
 141   0.0000       0.454200        12.3594 
 142   0.0000       0.456055        12.4099 
 143   0.0000       0.462182        12.5766 
 144   0.0000       0.462554        12.5867 
 145   0.0000       0.471679        12.8350 
 146   0.0000       0.473187        12.8761 
 147   0.0000       0.474463        12.9108 
 148   0.0000       0.475890        12.9496 
 149   0.0000       0.478109        13.0100 
 150   0.0000       0.491233        13.3671 
 151   0.0000       0.493821        13.4376 
 152   0.0000       0.499474        13.5914 
 153   0.0000       0.506741        13.7891 
 154   0.0000       0.509731        13.8705 
 155   0.0000       0.520837        14.1727 
 156   0.0000       0.521362        14.1870 
 157   0.0000       0.530901        14.4466 
 158   0.0000       0.537405        14.6235 
 159   0.0000       0.539728        14.6867 
 160   0.0000       0.550995        14.9933 
 161   0.0000       0.554223        15.0812 
 162   0.0000       0.559695        15.2301 
 163   0.0000       0.574492        15.6327 
 164   0.0000       0.581755        15.8304 
 165   0.0000       0.582221        15.8430 
 166   0.0000       0.599655        16.3175 
 167   0.0000       0.602935        16.4067 
 168   0.0000       0.605344        16.4723 
 169   0.0000       0.618709        16.8359 
 170   0.0000       0.620774        16.8921 
 171   0.0000       0.628687        17.1074 
 172   0.0000       0.633338        17.2340 
 173   0.0000       0.639803        17.4099 
 174   0.0000       0.642722        17.4893 
 175   0.0000       0.646569        17.5940 
 176   0.0000       0.651172        17.7193 
 177   0.0000       0.659508        17.9461 
 178   0.0000       0.675723        18.3874 
 179   0.0000       0.676881        18.4189 
 180   0.0000       0.681046        18.5322 
 181   0.0000       0.694484        18.8979 
 182   0.0000       0.730097        19.8669 
 183   0.0000       0.734151        19.9773 
 184   0.0000       0.735117        20.0035 
 185   0.0000       0.745002        20.2725 
 186   0.0000       0.746974        20.3262 
 187   0.0000       0.751461        20.4483 
 188   0.0000       0.764239        20.7960 
 189   0.0000       0.766622        20.8608 
 190   0.0000       0.777682        21.1618 
 191   0.0000       0.799465        21.7546 
 192   0.0000       0.803824        21.8732 
 193   0.0000       0.807042        21.9607 
 194   0.0000       0.808091        21.9893 
 195   0.0000       0.821022        22.3411 
 196   0.0000       0.824866        22.4458 
 197   0.0000       0.832347        22.6493 
 198   0.0000       0.845771        23.0146 
 199   0.0000       0.853678        23.2298 
 200   0.0000       0.860674        23.4201 
 201   0.0000       0.862579        23.4720 
 202   0.0000       0.864616        23.5274 
 203   0.0000       0.878903        23.9162 
 204   0.0000       0.890953        24.2441 
 205   0.0000       0.903384        24.5823 
 206   0.0000       0.911341        24.7988 
 207   0.0000       0.915060        24.9001 
 208   0.0000       0.938911        25.5491 
 209   0.0000       0.939009        25.5517 
 210   0.0000       0.961814        26.1723 
 211   0.0000       0.969971        26.3943 
 212   0.0000       0.973088        26.4791 
 213   0.0000       0.983234        26.7552 
 214   0.0000       0.991539        26.9812 
 215   0.0000       0.997312        27.1382 
 216   0.0000       1.000402        27.2223 
 217   0.0000       1.000831        27.2340 
 218   0.0000       1.002525        27.2801 
 219   0.0000       1.010513        27.4975 
 220   0.0000       1.035305        28.1721 
 221   0.0000       1.049499        28.5583 
 222   0.0000       1.052104        28.6292 
 223   0.0000       1.054787        28.7022 
 224   0.0000       1.059661        28.8349 
 225   0.0000       1.063680        28.9442 
 226   0.0000       1.066327        29.0162 
 227   0.0000       1.085774        29.5454 
 228   0.0000       1.090137        29.6641 
 229   0.0000       1.093386        29.7525 
 230   0.0000       1.107291        30.1309 
 231   0.0000       1.115177        30.3455 
 232   0.0000       1.118526        30.4366 
 233   0.0000       1.123282        30.5661 
 234   0.0000       1.141879        31.0721 
 235   0.0000       1.144237        31.1363 
 236   0.0000       1.146920        31.2093 
 237   0.0000       1.147692        31.2303 
 238   0.0000       1.150917        31.3180 
 239   0.0000       1.158645        31.5283 
 240   0.0000       1.196597        32.5611 
 241   0.0000       1.200549        32.6686 
 242   0.0000       1.243824        33.8462 
 243   0.0000       1.250517        34.0283 
 244   0.0000       1.261695        34.3325 
 245   0.0000       1.274278        34.6749 
 246   0.0000       1.282534        34.8995 
 247   0.0000       1.297300        35.3013 
 248   0.0000       1.317291        35.8453 
 249   0.0000       1.342578        36.5334 
 250   0.0000       1.355668        36.8896 
 251   0.0000       1.367500        37.2116 
 252   0.0000       1.382077        37.6082 
 253   0.0000       1.388256        37.7764 
 254   0.0000       1.400727        38.1157 
 255   0.0000       1.423544        38.7366 
 256   0.0000       1.434397        39.0319 
 257   0.0000       1.442181        39.2437 
 258   0.0000       1.442282        39.2465 
 259   0.0000       1.444353        39.3028 
 260   0.0000       1.451165        39.4882 
 261   0.0000       1.452999        39.5381 
 262   0.0000       1.457424        39.6585 
 263   0.0000       1.469280        39.9812 
 264   0.0000       1.474470        40.1224 
 265   0.0000       1.481697        40.3190 
 266   0.0000       1.483800        40.3763 
 267   0.0000       1.491980        40.5989 
 268   0.0000       1.493646        40.6442 
 269   0.0000       1.498196        40.7680 
 270   0.0000       1.498468        40.7754 
 271   0.0000       1.521714        41.4079 
 272   0.0000       1.522684        41.4343 
 273   0.0000       1.541013        41.9331 
 274   0.0000       1.553384        42.2697 
 275   0.0000       1.565268        42.5931 
 276   0.0000       1.565528        42.6002 
 277   0.0000       1.572532        42.7908 
 278   0.0000       1.586233        43.1636 
 279   0.0000       1.591658        43.3112 
 280   0.0000       1.598064        43.4855 
 281   0.0000       1.606388        43.7120 
 282   0.0000       1.615872        43.9701 
 283   0.0000       1.621467        44.1224 
 284   0.0000       1.666856        45.3575 
 285   0.0000       1.671741        45.4904 
 286   0.0000       1.695024        46.1240 
 287   0.0000       1.700722        46.2790 
 288   0.0000       1.710638        46.5488 
 289   0.0000       1.712576        46.6016 
 290   0.0000       1.712660        46.6038 
 291   0.0000       1.719696        46.7953 
 292   0.0000       1.731499        47.1165 
 293   0.0000       1.735218        47.2177 
 294   0.0000       1.766246        48.0620 
 295   0.0000       1.770341        48.1734 
 296   0.0000       1.784462        48.5577 
 297   0.0000       1.787964        48.6530 
 298   0.0000       1.796895        48.8960 
 299   0.0000       1.797771        48.9198 
 300   0.0000       1.800575        48.9961 
 301   0.0000       1.828224        49.7485 
 302   0.0000       1.830411        49.8080 
 303   0.0000       1.831885        49.8481 
 304   0.0000       1.838438        50.0264 
 305   0.0000       1.839601        50.0581 
 306   0.0000       1.847616        50.2762 
 307   0.0000       1.848458        50.2991 
 308   0.0000       1.880931        51.1827 
 309   0.0000       1.885289        51.3013 
 310   0.0000       1.897023        51.6206 
 311   0.0000       1.898615        51.6639 
 312   0.0000       1.901948        51.7546 
 313   0.0000       1.904688        51.8292 
 314   0.0000       1.906000        51.8649 
 315   0.0000       1.938160        52.7400 
 316   0.0000       1.941235        52.8237 
 317   0.0000       1.949570        53.0505 
 318   0.0000       1.955038        53.1993 
 319   0.0000       1.965465        53.4830 
 320   0.0000       1.966963        53.5238 
 321   0.0000       1.991196        54.1832 
 322   0.0000       1.996411        54.3251 
 323   0.0000       1.998526        54.3827 
 324   0.0000       2.001938        54.4755 
 325   0.0000       2.009734        54.6876 
 326   0.0000       2.013428        54.7882 
 327   0.0000       2.023901        55.0732 
 328   0.0000       2.035206        55.3808 
 329   0.0000       2.060651        56.0732 
 330   0.0000       2.064475        56.1772 
 331   0.0000       2.076398        56.5017 
 332   0.0000       2.077257        56.5250 
 333   0.0000       2.084571        56.7241 
 334   0.0000       2.100053        57.1453 
 335   0.0000       2.125527        57.8385 
 336   0.0000       2.128846        57.9288 
 337   0.0000       2.139266        58.2124 
 338   0.0000       2.159196        58.7547 
 339   0.0000       2.160883        58.8006 
 340   0.0000       2.184564        59.4450 
 341   0.0000       2.188078        59.5406 
 342   0.0000       2.190088        59.5953 
 343   0.0000       2.256839        61.4117 
 344   0.0000       2.273070        61.8534 
 345   0.0000       2.276475        61.9460 
 346   0.0000       2.296623        62.4943 
 347   0.0000       2.311225        62.8916 
 348   0.0000       2.312944        62.9384 
 349   0.0000       2.316321        63.0303 
 350   0.0000       2.321726        63.1774 
 351   0.0000       2.356096        64.1126 
 352   0.0000       2.375396        64.6378 
 353   0.0000       2.375896        64.6514 
 354   0.0000       2.378236        64.7151 
 355   0.0000       2.406388        65.4811 
 356   0.0000       2.424681        65.9789 
 357   0.0000       2.445373        66.5420 
 358   0.0000       2.463417        67.0330 
 359   0.0000       2.475674        67.3665 
 360   0.0000       2.498572        67.9896 
 361   0.0000       2.500742        68.0486 
 362   0.0000       2.525879        68.7327 
 363   0.0000       2.536973        69.0346 
 364   0.0000       2.544699        69.2448 
 365   0.0000       2.545111        69.2560 
 366   0.0000       2.549604        69.3782 
 367   0.0000       2.555564        69.5404 
 368   0.0000       2.568330        69.8878 
 369   0.0000       2.577192        70.1290 
 370   0.0000       2.590919        70.5025 
 371   0.0000       2.601505        70.7906 
 372   0.0000       2.615301        71.1660 
 373   0.0000       2.616272        71.1924 
 374   0.0000       2.617538        71.2268 
 375   0.0000       2.630447        71.5781 
 376   0.0000       2.637870        71.7801 
 377   0.0000       2.642944        71.9182 
 378   0.0000       2.654764        72.2398 
 379   0.0000       2.659156        72.3593 
 380   0.0000       2.670820        72.6767 
 381   0.0000       2.672954        72.7348 
 382   0.0000       2.684090        73.0378 
 383   0.0000       2.685413        73.0738 
 384   0.0000       2.693218        73.2862 
 385   0.0000       2.698954        73.4423 
 386   0.0000       2.713699        73.8435 
 387   0.0000       2.740414        74.5705 
 388   0.0000       2.766649        75.2843 
 389   0.0000       2.769740        75.3685 
 390   0.0000       2.770354        75.3852 
 391   0.0000       2.774544        75.4992 
 392   0.0000       2.778514        75.6072 
 393   0.0000       2.792139        75.9780 
[...]
     78       0.003897  -0.008310  -0.011991   0.008022  -0.000287  -0.000511
     79      -0.207791   0.265575   0.502859  -0.384151   0.003348   0.009961
     80       0.000007  -0.000008  -0.000016   0.000012  -0.000000  -0.000000
     81       0.011996   0.296050   0.439116  -0.302900   0.012619   0.021820
     82       0.011035   0.175192   0.258705  -0.177999   0.008033   0.013703
     83       0.000000   0.000008   0.000012  -0.000008   0.000000   0.000001
     84       0.765544   0.059954   0.072455  -0.048002   0.157860   0.222290
     85       0.477402   0.036191   0.043423  -0.028686   0.100840   0.141999
     86       0.000020   0.000002   0.000002  -0.000001   0.000004   0.000006
     87      -0.274325  -0.031942  -0.041959   0.035186   0.478174   0.671165
     88       0.147711   0.017105   0.022426  -0.018920  -0.264222  -0.370817
     89      -0.000017  -0.000002  -0.000002   0.000002   0.000029   0.000041
     90       0.000293   0.000231  -0.000342  -0.000240  -0.004813   0.003397
     91       0.060590   0.033606  -0.043681  -0.043818   0.767166  -0.545901
     92      -0.000002  -0.000001   0.000001   0.000001  -0.000023   0.000016
     93      -0.153684  -0.055664   0.066892   0.053531   0.230376  -0.164514
     94      -0.086905  -0.032582   0.039451   0.031663   0.127027  -0.090712
     95      -0.000004  -0.000002   0.000002   0.000001   0.000006  -0.000004
     96       0.003637  -0.278567   0.413273   0.345007   0.019700  -0.017145
     97       0.002917  -0.166139   0.247558   0.207187   0.010956  -0.009664
     98       0.000000  -0.000007   0.000011   0.000009   0.000001  -0.000000
     99       0.037219  -0.213175   0.408686   0.379822   0.005411  -0.007302
    100      -0.021335   0.124948  -0.235382  -0.217234  -0.003442   0.004420
    101       0.000002  -0.000013   0.000026   0.000024   0.000000  -0.000000


-----------
IR SPECTRUM
-----------

 Mode   freq       eps      Int      T**2         TX        TY        TZ
       cm**-1   L/(mol*cm) km/mol    a.u.
----------------------------------------------------------------------------
  6:     86.28   0.000099    0.50  0.000356  ( 0.000043  0.000011 -0.018878)
  7:     86.47   0.000002    0.01  0.000007  (-0.000060 -0.000016 -0.002716)
  8:    128.93   0.000932    4.71  0.002255  ( 0.000014  0.000000  0.047486)
  9:    165.52   0.000003    0.02  0.000006  (-0.000013 -0.000008  0.002447)
 10:    224.61   0.000000    0.00  0.000000  (-0.000001 -0.000004  0.000006)
 11:    295.75   0.000003    0.01  0.000003  ( 0.000001  0.000007  0.001670)
 12:    296.35   0.000000    0.00  0.000000  ( 0.000013  0.000006 -0.000076)
 13:    302.20   0.000000    0.00  0.000000  (-0.000008 -0.000006  0.000046)
 14:    323.17   0.000269    1.36  0.000259  (-0.000003  0.000006  0.016103)
 15:    359.26   0.001962    9.92  0.001705  ( 0.035483  0.021106  0.000001)
 16:    367.86   0.000003    0.01  0.000002  ( 0.000797 -0.001220  0.000000)
 17:    389.48   0.001309    6.61  0.001049  ( 0.016526 -0.027849  0.000002)
 18:    393.62   0.000026    0.13  0.000020  (-0.003858 -0.002324 -0.000000)
 19:    423.79   0.000000    0.00  0.000000  (-0.000002  0.000010  0.000046)
 20:    443.32   0.012028   60.79  0.008467  ( 0.079116  0.046987  0.000002)
 21:    455.69   0.000063    0.32  0.000043  ( 0.000012 -0.000005  0.006560)
 22:    478.12   0.000050    0.25  0.000033  ( 0.002975 -0.004870  0.000000)
 23:    488.71   0.000000    0.00  0.000000  (-0.000013  0.000007  0.000034)
 24:    489.02   0.000116    0.59  0.000074  (-0.004404  0.007389 -0.000001)
 25:    501.42   0.000023    0.12  0.000014  (-0.001919  0.003253 -0.000000)
 26:    513.64   0.000299    1.51  0.000182  ( 0.011581  0.006898  0.000000)
 27:    539.85   0.000000    0.00  0.000000  (-0.000017 -0.000005  0.000005)
 28:    553.00   0.001323    6.68  0.000746  (-0.000016  0.000002  0.027320)
 29:    577.73   0.004493   22.71  0.002427  ( 0.000004 -0.000000 -0.049266)
 30:    579.58   0.001483    7.49  0.000798  ( 0.024300  0.014416  0.000010)
 31:    607.44   0.000000    0.00  0.000000  (-0.000005  0.000004 -0.000040)
 32:    654.82   0.000000    0.00  0.000000  ( 0.000008  0.000001  0.000013)
 33:    657.40   0.000279    1.41  0.000132  ( 0.009885  0.005896  0.000000)
 34:    675.81   0.000141    0.71  0.000065  ( 0.000021  0.000007 -0.008075)
 35:    685.25   0.000219    1.11  0.000100  (-0.005121  0.008582 -0.000001)
 36:    688.83   0.000012    0.06  0.000006  (-0.002046 -0.001194 -0.000000)
 37:    737.92   0.000000    0.00  0.000000  ( 0.000001 -0.000008 -0.000023)
 38:    747.79   0.001500    7.58  0.000626  (-0.021504 -0.012793 -0.000000)
 39:    773.02   0.000082    0.42  0.000033  ( 0.000000  0.000006 -0.005762)
 40:    776.68   0.000623    3.15  0.000250  ( 0.008072 -0.013610  0.000001)
 41:    777.35   0.000000    0.00  0.000000  (-0.000001  0.000001  0.000039)
 42:    794.21   0.000714    3.61  0.000280  ( 0.000007 -0.000012  0.016746)
 43:    811.86   0.000000    0.00  0.000000  ( 0.000002  0.000007 -0.000030)
 44:    825.46   0.000000    0.00  0.000000  ( 0.000316 -0.000040  0.000001)
 45:    826.01   0.000165    0.84  0.000062  ( 0.003996 -0.006816  0.000001)
 46:    836.64   0.001525    7.71  0.000569  ( 0.000019  0.000004  0.023849)
 47:    853.93   0.000000    0.00  0.000000  ( 0.000008 -0.000002 -0.000042)
 48:    869.41   0.024107  121.83  0.008653  ( 0.000019 -0.000006 -0.093021)
 49:    914.09   0.000125    0.63  0.000043  ( 0.005630  0.003328 -0.000000)
 50:    962.80   0.000000    0.00  0.000000  ( 0.000016  0.000004 -0.000005)
 51:    968.33   0.000024    0.12  0.000008  ( 0.000013 -0.000012 -0.002808)
 52:    973.95   0.000000    0.00  0.000000  (-0.000011 -0.000009  0.000027)
 53:    979.35   0.000011    0.06  0.000004  ( 0.000006  0.000007  0.001884)
 54:    983.49   0.000000    0.00  0.000000  (-0.000025 -0.000000 -0.000018)
 55:    994.90   0.000153    0.77  0.000048  ( 0.005956  0.003539 -0.000000)
 56:   1008.24   0.000006    0.03  0.000002  (-0.000708  0.001226 -0.000000)
 57:   1042.98   0.000205    1.04  0.000061  (-0.004010  0.006738 -0.000001)
 58:   1135.57   0.002164   10.94  0.000595  ( 0.020948  0.012485  0.000001)
 59:   1153.53   0.002031   10.26  0.000549  ( 0.011871 -0.020212  0.000001)
 60:   1171.91   0.000116    0.58  0.000031  ( 0.002837 -0.004773  0.000000)
 61:   1172.48   0.000090    0.45  0.000024  ( 0.004227  0.002458  0.000000)
 62:   1180.22   0.000198    1.00  0.000052  ( 0.006218  0.003695  0.000000)
 63:   1221.49   0.000099    0.50  0.000025  ( 0.002563 -0.004332  0.000000)
 64:   1223.70   0.000422    2.13  0.000108  (-0.005333  0.008902 -0.000000)
 65:   1237.76   0.000330    1.67  0.000083  ( 0.004643 -0.007858  0.000000)
 66:   1244.55   0.000013    0.07  0.000003  ( 0.000863 -0.001625  0.000000)
 67:   1245.94   0.000142    0.72  0.000035  (-0.005130 -0.003024 -0.000000)
 68:   1255.84   0.000009    0.05  0.000002  (-0.001293 -0.000738 -0.000000)
 69:   1293.84   0.001687    8.53  0.000407  ( 0.010365 -0.017306  0.000001)
 70:   1300.56   0.001265    6.40  0.000304  (-0.014950 -0.008952 -0.000000)
 71:   1346.98   0.000788    3.98  0.000183  ( 0.006962 -0.011582  0.000001)
 72:   1354.33   0.001542    7.79  0.000355  ( 0.016191  0.009656  0.000001)
 73:   1382.06   0.000001    0.01  0.000000  (-0.000428 -0.000227  0.000000)
 74:   1388.65   0.000464    2.34  0.000104  (-0.005198  0.008783 -0.000000)
 75:   1408.07   0.000088    0.44  0.000019  (-0.002252  0.003794 -0.000000)
 76:   1424.09   0.000787    3.98  0.000172  (-0.006721  0.011283 -0.000001)
 77:   1429.99   0.000244    1.23  0.000053  (-0.006261 -0.003744 -0.000000)
 78:   1458.03   0.000004    0.02  0.000001  ( 0.000746  0.000440  0.000000)
 79:   1463.88   0.000096    0.49  0.000021  (-0.003910 -0.002294 -0.000000)
 80:   1466.81   0.000624    3.16  0.000133  (-0.005897  0.009902 -0.000001)
 81:   1494.09   0.000114    0.58  0.000024  ( 0.002512 -0.004192  0.000000)
 82:   1527.38   0.001358    6.86  0.000277  ( 0.008521 -0.014312  0.000001)
 83:   1533.25   0.001419    7.17  0.000289  (-0.014610 -0.008682 -0.000000)
 84:   1552.60   0.000179    0.90  0.000036  ( 0.005130  0.003097  0.000000)
 85:   1568.11   0.002110   10.66  0.000420  ( 0.010472 -0.017612  0.000001)
 86:   1583.64   0.000725    3.67  0.000143  (-0.010272 -0.006118 -0.000000)
 87:   1640.23   0.002485   12.56  0.000473  (-0.018697 -0.011100 -0.000001)
 88:   1646.81   0.000919    4.64  0.000174  ( 0.006700 -0.011367  0.000001)
 89:   1656.53   0.000582    2.94  0.000110  (-0.005336  0.009005 -0.000001)
 90:   1659.11   0.002585   13.06  0.000486  ( 0.018989  0.011206  0.000001)
 91:   2070.48   0.000108    0.54  0.000016  (-0.002061  0.003462 -0.000000)
 92:   3157.38   0.000418    2.11  0.000041  ( 0.005691  0.002996  0.000000)
 93:   3158.84   0.000584    2.95  0.000058  (-0.003451  0.006769 -0.000000)
 94:   3159.90   0.000092    0.46  0.000009  ( 0.002756  0.001213  0.000000)
 95:   3166.56   0.001630    8.24  0.000161  ( 0.009938  0.007865  0.000000)
 96:   3166.73   0.000774    3.91  0.000076  (-0.008496 -0.002026 -0.000000)
 97:   3175.10   0.000985    4.98  0.000097  (-0.005596  0.008093 -0.000001)
 98:   3176.87   0.010807   54.61  0.001062  (-0.027071 -0.018131 -0.000001)
 99:   3178.02   0.008774   44.34  0.000862  (-0.016389  0.024351 -0.000001)
100:   3193.42   0.004331   21.89  0.000423  (-0.016393 -0.012432 -0.000000)
101:   3193.56   0.001953    9.87  0.000191  (-0.009756  0.009779 -0.000001)

* The epsilon (eps) is given for a Dirac delta lineshape.
** The dipole moment derivative (T) already includes vibrational overlap.

The first frequency considered to be a vibration is 6
The total number of vibrations considered is 96


--------------------------
THERMOCHEMISTRY AT 298.15K
--------------------------

Temperature         ... 298.15 K
Pressure            ... 1.00 atm
Total Mass          ... 298.34 AMU

Throughout the following assumptions are being made:
  (1) The electronic state is orbitally nondegenerate
  (2) There are no thermally accessible electronically excited states
  (3) Hindered rotations indicated by low frequency modes are not
      treated as such but are treated as vibrations and this may
      cause some error
  (4) All equations used are the standard statistical mechanics
      equations for an ideal gas
  (5) All vibrations are strictly harmonic

freq.      86.28  E(vib)   ...       0.48 
freq.      86.47  E(vib)   ...       0.48 
freq.     128.93  E(vib)   ...       0.43 
freq.     165.52  E(vib)   ...       0.39 
freq.     224.61  E(vib)   ...       0.33 
freq.     295.75  E(vib)   ...       0.27 
freq.     296.35  E(vib)   ...       0.27 
freq.     302.20  E(vib)   ...       0.26 
freq.     323.17  E(vib)   ...       0.25 
freq.     359.26  E(vib)   ...       0.22 
freq.     367.86  E(vib)   ...       0.21 
freq.     389.48  E(vib)   ...       0.20 
freq.     393.62  E(vib)   ...       0.20 
freq.     423.79  E(vib)   ...       0.18 
freq.     443.32  E(vib)   ...       0.17 
freq.     455.69  E(vib)   ...       0.16 
freq.     478.12  E(vib)   ...       0.15 
freq.     488.71  E(vib)   ...       0.15 
freq.     489.02  E(vib)   ...       0.15 
freq.     501.42  E(vib)   ...       0.14 
freq.     513.64  E(vib)   ...       0.13 
freq.     539.85  E(vib)   ...       0.12 
freq.     553.00  E(vib)   ...       0.12 
freq.     577.73  E(vib)   ...       0.11 
freq.     579.58  E(vib)   ...       0.11 
freq.     607.44  E(vib)   ...       0.10 
freq.     654.82  E(vib)   ...       0.08 
freq.     657.40  E(vib)   ...       0.08 
freq.     675.81  E(vib)   ...       0.08 
freq.     685.25  E(vib)   ...       0.07 
freq.     688.83  E(vib)   ...       0.07 
freq.     737.92  E(vib)   ...       0.06 
freq.     747.79  E(vib)   ...       0.06 
freq.     773.02  E(vib)   ...       0.05 
freq.     776.68  E(vib)   ...       0.05 
freq.     777.35  E(vib)   ...       0.05 
freq.     794.21  E(vib)   ...       0.05 
freq.     811.86  E(vib)   ...       0.05 
freq.     825.46  E(vib)   ...       0.04 
freq.     826.01  E(vib)   ...       0.04 
freq.     836.64  E(vib)   ...       0.04 
freq.     853.93  E(vib)   ...       0.04 
freq.     869.41  E(vib)   ...       0.04 
freq.     914.09  E(vib)   ...       0.03 
freq.     962.80  E(vib)   ...       0.03 
freq.     968.33  E(vib)   ...       0.03 
freq.     973.95  E(vib)   ...       0.03 
freq.     979.35  E(vib)   ...       0.03 
freq.     983.49  E(vib)   ...       0.02 
freq.     994.90  E(vib)   ...       0.02 
freq.    1008.24  E(vib)   ...       0.02 
freq.    1042.98  E(vib)   ...       0.02 
freq.    1135.57  E(vib)   ...       0.01 
freq.    1153.53  E(vib)   ...       0.01 
freq.    1171.91  E(vib)   ...       0.01 
freq.    1172.48  E(vib)   ...       0.01 
freq.    1180.22  E(vib)   ...       0.01 
freq.    1221.49  E(vib)   ...       0.01 
freq.    1223.70  E(vib)   ...       0.01 
freq.    1237.76  E(vib)   ...       0.01 
freq.    1244.55  E(vib)   ...       0.01 
freq.    1245.94  E(vib)   ...       0.01 
freq.    1255.84  E(vib)   ...       0.01 
freq.    1293.84  E(vib)   ...       0.01 
freq.    1300.56  E(vib)   ...       0.01 
freq.    1346.98  E(vib)   ...       0.01 
freq.    1354.33  E(vib)   ...       0.01 
freq.    1382.06  E(vib)   ...       0.01 
freq.    1388.65  E(vib)   ...       0.00 
freq.    1408.07  E(vib)   ...       0.00 
freq.    1424.09  E(vib)   ...       0.00 
freq.    1429.99  E(vib)   ...       0.00 
freq.    1458.03  E(vib)   ...       0.00 
freq.    1463.88  E(vib)   ...       0.00 
freq.    1466.81  E(vib)   ...       0.00 
freq.    1494.09  E(vib)   ...       0.00 
freq.    1527.38  E(vib)   ...       0.00 
freq.    1533.25  E(vib)   ...       0.00 
freq.    1552.60  E(vib)   ...       0.00 
freq.    1568.11  E(vib)   ...       0.00 
freq.    1583.64  E(vib)   ...       0.00 
freq.    1640.23  E(vib)   ...       0.00 
freq.    1646.81  E(vib)   ...       0.00 
freq.    1656.53  E(vib)   ...       0.00 
freq.    1659.11  E(vib)   ...       0.00 
freq.    2070.48  E(vib)   ...       0.00 
freq.    3157.38  E(vib)   ...       0.00 
freq.    3158.84  E(vib)   ...       0.00 
freq.    3159.90  E(vib)   ...       0.00 
freq.    3166.56  E(vib)   ...       0.00 
freq.    3166.73  E(vib)   ...       0.00 
freq.    3175.10  E(vib)   ...       0.00 
freq.    3176.87  E(vib)   ...       0.00 
freq.    3178.02  E(vib)   ...       0.00 
freq.    3193.42  E(vib)   ...       0.00 
freq.    3193.56  E(vib)   ...       0.00 

------------
INNER ENERGY
------------

The inner energy is: U= E(el) + E(ZPE) + E(vib) + E(rot) + E(trans)
    E(el)   - is the total energy from the electronic structure calculation
              = E(kin-el) + E(nuc-el) + E(el-el) + E(nuc-nuc)
    E(ZPE)  - the the zero temperature vibrational energy from the frequency calculation
    E(vib)  - the the finite temperature correction to E(ZPE) due to population
              of excited vibrational states
    E(rot)  - is the rotational thermal energy
    E(trans)- is the translational thermal energy

Summary of contributions to the inner energy U:
Electronic energy                ...   -920.29108846 Eh
Zero point energy                ...      0.25403907 Eh     159.41 kcal/mol
Thermal vibrational correction   ...      0.01141083 Eh       7.16 kcal/mol
Thermal rotational correction    ...      0.00141627 Eh       0.89 kcal/mol
Thermal translational correction ...      0.00141627 Eh       0.89 kcal/mol
-----------------------------------------------------------------------
Total thermal energy                   -920.02280601 Eh


Summary of corrections to the electronic energy:
(perhaps to be used in another calculation)
Total thermal correction                  0.01424337 Eh       8.94 kcal/mol
Non-thermal (ZPE) correction              0.25403907 Eh     159.41 kcal/mol
-----------------------------------------------------------------------
Total correction                          0.26828245 Eh     168.35 kcal/mol


--------
ENTHALPY
--------

The enthalpy is H = U + kB*T
                kB is Boltzmann's constant
Total free energy                 ...   -920.02280601 Eh 
Thermal Enthalpy correction       ...      0.00094421 Eh       0.59 kcal/mol
-----------------------------------------------------------------------
Total Enthalpy                    ...   -920.02186180 Eh


Note: Rotational entropy computed according to Herzberg 
Infrared and Raman Spectra, Chapter V,1, Van Nostrand Reinhold, 1945 
Point Group:  Cs, Symmetry Number:   1  
Rotational constants in cm-1:     0.011665     0.011070     0.005680 

Vibrational entropy computed according to the QRRHO of S. Grimme
Chem.Eur.J. 2012 18 9955


-------
ENTROPY
-------

The entropy contributions are T*S = T*(S(el)+S(vib)+S(rot)+S(trans))
     S(el)   - electronic entropy
     S(vib)  - vibrational entropy
     S(rot)  - rotational entropy
     S(trans)- translational entropy
The entropies will be listed as multiplied by the temperature to get
units of energy

Electronic entropy                ...      0.00000000 Eh      0.00 kcal/mol
Vibrational entropy               ...      0.01798669 Eh     11.29 kcal/mol
Rotational entropy                ...      0.01617933 Eh     10.15 kcal/mol
Translational entropy             ...      0.02041934 Eh     12.81 kcal/mol
-----------------------------------------------------------------------
Final entropy term                ...      0.05458535 Eh     34.25 kcal/mol

In case the symmetry of your molecule has not been determined correctly
or in case you have a reason to use a different symmetry number we print 
out the resulting rotational entropy values for sn=1,12 :
 --------------------------------------------------------
|  sn= 1 | S(rot)=       0.01617933 Eh     10.15 kcal/mol|
|  sn= 2 | S(rot)=       0.01552487 Eh      9.74 kcal/mol|
|  sn= 3 | S(rot)=       0.01514204 Eh      9.50 kcal/mol|
|  sn= 4 | S(rot)=       0.01487041 Eh      9.33 kcal/mol|
|  sn= 5 | S(rot)=       0.01465973 Eh      9.20 kcal/mol|
|  sn= 6 | S(rot)=       0.01448758 Eh      9.09 kcal/mol|
|  sn= 7 | S(rot)=       0.01434204 Eh      9.00 kcal/mol|
|  sn= 8 | S(rot)=       0.01421596 Eh      8.92 kcal/mol|
|  sn= 9 | S(rot)=       0.01410475 Eh      8.85 kcal/mol|
|  sn=10 | S(rot)=       0.01400527 Eh      8.79 kcal/mol|
|  sn=11 | S(rot)=       0.01391528 Eh      8.73 kcal/mol|
|  sn=12 | S(rot)=       0.01383312 Eh      8.68 kcal/mol|
 --------------------------------------------------------


-------------------
GIBBS FREE ENERGY
-------------------

The Gibbs free energy is G = H - T*S

Total enthalpy                    ...   -920.02186180 Eh 
Total entropy correction          ...     -0.05458535 Eh    -34.25 kcal/mol
-----------------------------------------------------------------------
Final Gibbs free energy         ...   -920.07644715 Eh

For completeness - the Gibbs free energy minus the electronic energy
G-E(el)                           ...      0.21464131 Eh    134.69 kcal/mol


Timings for individual modules:

Sum of individual times         ...     3275.038 sec (=  54.584 min)
GTO integral calculation        ...        1.529 sec (=   0.025 min)   0.0 %
SCF iterations                  ...      329.475 sec (=   5.491 min)  10.1 %
SCF Gradient evaluation         ...       60.058 sec (=   1.001 min)   1.8 %
Geometry relaxation             ...        0.216 sec (=   0.004 min)   0.0 %
Analytical frequency calculation...     2883.760 sec (=  48.063 min)  88.1 %
                             ****ORCA TERMINATED NORMALLY****
TOTAL RUN TIME: 0 days 0 hours 54 minutes 36 seconds 626 msec
