
                                 *****************
                                 * O   R   C   A *
                                 *****************

                                            #,                                       
                                            ###                                      
                                            ####                                     
                                            #####                                    
                                            ######                                   
                                           ########,                                 
                                     ,,################,,,,,                         
                               ,,#################################,,                 
                          ,,##########################################,,             
                       ,#########################################, ''#####,          
                    ,#############################################,,   '####,        
                  ,##################################################,,,,####,       
                ,###########''''           ''''###############################       
              ,#####''   ,,,,##########,,,,          '''####'''          '####       
            ,##' ,,,,###########################,,,                        '##       
           ' ,,###''''                  '''############,,,                           
         ,,##''                                '''############,,,,        ,,,,,,###''
      ,#''                                            '''#######################'''  
     '                                                          ''''####''''         
             ,#######,   #######,   ,#######,      ##                                
            ,#'     '#,  ##    ##  ,#'     '#,    #''#        ######   ,####,        
            ##       ##  ##   ,#'  ##            #'  '#       #        #'  '#        
            ##       ##  #######   ##           ,######,      #####,   #    #        
            '#,     ,#'  ##    ##  '#,     ,#' ,#      #,         ##   #,  ,#        
             '#######'   ##     ##  '#######'  #'      '#     #####' # '####'        



                  #######################################################
                  #                        -***-                        #
                  #          Department of theory and spectroscopy      #
                  #    Directorship and core code : Frank Neese         #
                  #        Max Planck Institute fuer Kohlenforschung    #
                  #                Kaiser Wilhelm Platz 1               #
                  #                 D-45470 Muelheim/Ruhr               #
                  #                      Germany                        #
                  #                                                     #
                  #                  All rights reserved                #
                  #                        -***-                        #
                  #######################################################



                         Program Version 5.0.4 -  RELEASE  -

 With contributions from (in alphabetic order):
   Daniel Aravena         : Magnetic Suceptibility
   Michael Atanasov       : Ab Initio Ligand Field Theory (pilot matlab implementation)
   Alexander A. Auer      : GIAO ZORA, VPT2 properties, NMR spectrum
   Ute Becker             : Parallelization
   Giovanni Bistoni       : ED, misc. LED, open-shell LED, HFLD
   Martin Brehm           : Molecular dynamics
   Dmytro Bykov           : SCF Hessian
   Vijay G. Chilkuri      : MRCI spin determinant printing, contributions to CSF-ICE
   Dipayan Datta          : RHF DLPNO-CCSD density
   Achintya Kumar Dutta   : EOM-CC, STEOM-CC
   Dmitry Ganyushin       : Spin-Orbit,Spin-Spin,Magnetic field MRCI
   Miquel Garcia          : C-PCM and meta-GGA Hessian, CC/C-PCM, Gaussian charge scheme
   Yang Guo               : DLPNO-NEVPT2, F12-NEVPT2, CIM, IAO-localization
   Andreas Hansen         : Spin unrestricted coupled pair/coupled cluster methods
   Benjamin Helmich-Paris : MC-RPA, TRAH-SCF, COSX integrals
   Lee Huntington         : MR-EOM, pCC
   Robert Izsak           : Overlap fitted RIJCOSX, COSX-SCS-MP3, EOM
   Marcus Kettner         : VPT2
   Christian Kollmar      : KDIIS, OOCD, Brueckner-CCSD(T), CCSD density, CASPT2, CASPT2-K
   Simone Kossmann        : Meta GGA functionals, TD-DFT gradient, OOMP2, MP2 Hessian
   Martin Krupicka        : Initial AUTO-CI
   Lucas Lang             : DCDCAS
   Marvin Lechner         : AUTO-CI (C++ implementation), FIC-MRCC
   Dagmar Lenk            : GEPOL surface, SMD
   Dimitrios Liakos       : Extrapolation schemes; Compound Job, initial MDCI parallelization
   Dimitrios Manganas     : Further ROCIS development; embedding schemes
   Dimitrios Pantazis     : SARC Basis sets
   Anastasios Papadopoulos: AUTO-CI, single reference methods and gradients
   Taras Petrenko         : DFT Hessian,TD-DFT gradient, ASA, ECA, R-Raman, ABS, FL, XAS/XES, NRVS
   Peter Pinski           : DLPNO-MP2, DLPNO-MP2 Gradient
   Christoph Reimann      : Effective Core Potentials
   Marius Retegan         : Local ZFS, SOC
   Christoph Riplinger    : Optimizer, TS searches, QM/MM, DLPNO-CCSD(T), (RO)-DLPNO pert. Triples
   Tobias Risthaus        : Range-separated hybrids, TD-DFT gradient, RPA, STAB
   Michael Roemelt        : Original ROCIS implementation
   Masaaki Saitow         : Open-shell DLPNO-CCSD energy and density
   Barbara Sandhoefer     : DKH picture change effects
   Avijit Sen             : IP-ROCIS
   Kantharuban Sivalingam : CASSCF convergence, NEVPT2, FIC-MRCI
   Bernardo de Souza      : ESD, SOC TD-DFT
   Georgi Stoychev        : AutoAux, RI-MP2 NMR, DLPNO-MP2 response
   Willem Van den Heuvel  : Paramagnetic NMR
   Boris Wezisla          : Elementary symmetry handling
   Frank Wennmohs         : Technical directorship


 We gratefully acknowledge several colleagues who have allowed us to
 interface, adapt or use parts of their codes:
   Stefan Grimme, W. Hujo, H. Kruse, P. Pracht,  : VdW corrections, initial TS optimization,
                  C. Bannwarth, S. Ehlert          DFT functionals, gCP, sTDA/sTD-DF
   Ed Valeev, F. Pavosevic, A. Kumar             : LibInt (2-el integral package), F12 methods
   Garnet Chan, S. Sharma, J. Yang, R. Olivares  : DMRG
   Ulf Ekstrom                                   : XCFun DFT Library
   Mihaly Kallay                                 : mrcc  (arbitrary order and MRCC methods)
   Jiri Pittner, Ondrej Demel                    : Mk-CCSD
   Frank Weinhold                                : gennbo (NPA and NBO analysis)
   Christopher J. Cramer and Donald G. Truhlar   : smd solvation model
   Lars Goerigk                                  : TD-DFT with DH, B97 family of functionals
   V. Asgeirsson, H. Jonsson                     : NEB implementation
   FAccTs GmbH                                   : IRC, NEB, NEB-TS, DLPNO-Multilevel, CI-OPT
                                                   MM, QMMM, 2- and 3-layer-ONIOM, Crystal-QMMM,
                                                   LR-CPCM, SF, NACMEs, symmetry and pop. for TD-DFT,
                                                   nearIR, NL-DFT gradient (VV10), updates on ESD,
                                                   ML-optimized integration grids
   S Lehtola, MJT Oliveira, MAL Marques          : LibXC Library
   Liviu Ungur et al                             : ANISO software


 Your calculation uses the libint2 library for the computation of 2-el integrals
 For citations please refer to: http://libint.valeyev.net

 Your ORCA version has been built with support for libXC version: 5.1.0
 For citations please refer to: https://tddft.org/programs/libxc/

 This ORCA versions uses:
   CBLAS   interface :  Fast vector & matrix operations
   LAPACKE interface :  Fast linear algebra routines
   Shared memory     :  Shared parallel matrices


Your calculation utilizes the atom-pairwise dispersion correction
based on tight binding partial charges (D4)
Cite in your paper:
E.Caldeweyher, C.Bannwarth, S.Grimme, J.Chem.Phys., (2017), 147, 034112.
E.Caldeweyher, S.Ehlert, A.Hansen, H.Neugebauer, S.Grimme, J.Chem.Phys., (2018), in progress.
   

================================================================================

----- Orbital basis set information -----
Your calculation utilizes the basis: 6-311G**
   H, Li - Ne  : R. Krishnan, J. S. Binkley, R. Seeger and J. A. Pople, J. Chem. Phys. 72, 650 (1980).
   Na - Ar     : A. D. McLean and G. S. Chandler J. Chem. Phys. 72, 5639, (1980).
   K  - Ca     : J.-P. Blaudeau, M. P. McGrath, L. A. Curtiss and L. Radom, J. Chem. Phys. 107, 5016 (1997).
   Ga - Kr     : L. A. Curtiss, M. P. McGrath, J.-P. Blandeau, N. E. Davis, R. C. Binning and L. Radom, J. Chem. Phys. 103, 6104 (1995).
   Pol./Diff.
   H, Li - Cl  : T. Clark, J. Chandrasekhar and P. v. R. Schleyer, J. Comp. Chem. 4, 294 (1983).
   H - Ne      : M. J. Frisch, J. A. Pople and J. S. Binkley, J. Chem. Phys. 80, 3265 (1984).

----- AuxJ basis set information -----
Your calculation utilizes the auxiliary basis: def2/J
   F. Weigend, Phys. Chem. Chem. Phys. 8, 1057 (2006).

================================================================================
                                        WARNINGS
                       Please study these warnings very carefully!
================================================================================

WARNING: Old DensityContainer found on disk!
         Will remove this file - 
         If you want to keep old densities, please start your calculation with a different basename. 


WARNING: Geometry Optimization
  ===> : Switching off AutoStart
         For restart on a previous wavefunction, please use MOREAD

INFO   : the flag for use of the SHARK integral package has been found!

================================================================================
                                       INPUT FILE
================================================================================
NAME = eight_seven_opt.inp
|  1> !b3lyp 6-311g** d4 pal4 opt freq tightscf
|  2> 
|  3> 
|  4> 
|  5> * xyz 0 1
|  6>   C   2.45024767781397     -2.79088845422407     -0.00000938991726
|  7>   C   1.27956267261532     -3.48658808767447     -0.00004199041518
|  8>   C   0.03020310625919     -2.81550732119018     -0.00011789062906
|  9>   C   -1.20108929293839     -3.52527633478020     -0.00015283044576
| 10>   C   -2.38858597622182     -2.86504893637874     -0.00022498731516
| 11>   C   -2.44108197261203     -1.44399840937901     -0.00026977722794
| 12>   C   -3.67664815488274     -0.75323846120680     -0.00034508171349
| 13>   C   -3.72619103513175      0.61011442158688     -0.00038695503160
| 14>   C   -2.53310385205262      1.35934451234726     -0.00035606001250
| 15>   C   -2.34752598708266      2.75390994650057     -0.00038920673762
| 16>   C   -1.29670621365080      3.37860291890169     -0.00036230773715
| 17>   C   0.01683951893005      2.87466311961114     -0.00029133231447
| 18>   C   1.24551381641079      3.56424109354326     -0.00025979444256
| 19>   C   2.41912619307901      2.86884590764749     -0.00018732290336
| 20>   C   2.43516507628830      1.45349356601676     -0.00014257265195
| 21>   C   3.65823793814160      0.72790757912234     -0.00006413468989
| 22>   C   3.67028527219667     -0.63084086543001     -0.00002138690896
| 23>   C   2.45820052906728     -1.37288152517845     -0.00005316837364
| 24>   C   1.23136984515361     -0.68204197678717     -0.00012966191552
| 25>   C   1.21554524887866      0.74294181053525     -0.00017432075702
| 26>   C   -0.02154995620554      1.44515622172209     -0.00024986159180
| 27>   C   -1.25909884296142      0.70968573654380     -0.00028126057904
| 28>   C   -1.23394295940125     -0.71246465284663     -0.00023766649264
| 29>   C   0.01011894540401     -1.40778721810258     -0.00016257370372
| 30>   H   3.39881580580318     -3.31417954221239      0.00004974485595
| 31>   H   1.28573635923110     -4.56988777799178     -0.00000784587274
| 32>   H   -1.17447994529076     -4.60821534800633     -0.00011914167385
| 33>   H   -3.32210856630241     -3.41462105732816     -0.00025074935228
| 34>   H   -4.59259219317491     -1.33148181218652     -0.00036964131605
| 35>   H   -4.67219547496003      1.13375240591159     -0.00044538469848
| 36>   H   1.23804129197342      4.64547385631899     -0.00029312160517
| 37>   H   3.36486881829754      3.39701007763111     -0.00016209932451
| 38>   H   4.58719661221870      1.28514520034098     -0.00003968006642
| 39>   H   4.60870298987178     -1.17199696838782      0.00003992508645
| 40>   **                         ****END OF INPUT****
================================================================================

                       *****************************
                       * Geometry Optimization Run *
                       *****************************

Geometry optimization settings:
Update method            Update   .... BFGS
Choice of coordinates    CoordSys .... Z-matrix Internals
Initial Hessian          InHess   .... Almoef's Model

Convergence Tolerances:
Energy Change            TolE     ....  5.0000e-06 Eh
Max. Gradient            TolMAXG  ....  3.0000e-04 Eh/bohr
RMS Gradient             TolRMSG  ....  1.0000e-04 Eh/bohr
Max. Displacement        TolMAXD  ....  4.0000e-03 bohr
RMS Displacement         TolRMSD  ....  2.0000e-03 bohr
Strict Convergence                ....  False
------------------------------------------------------------------------------
                        ORCA OPTIMIZATION COORDINATE SETUP
------------------------------------------------------------------------------

The optimization will be done in new redundant internal coordinates
Making redundant internal coordinates   ...  (new redundants) done
Evaluating the initial hessian          ...  (Almloef) done
Evaluating the coordinates              ...  done
Calculating the B-matrix                .... done
Calculating the G-matrix                .... done
Diagonalizing the G-matrix              .... done
The first mode is                       ....  125
The number of degrees of freedom        ....   96

    -----------------------------------------------------------------
                    Redundant Internal Coordinates


    -----------------------------------------------------------------
         Definition                    Initial Value    Approx d2E/dq
    -----------------------------------------------------------------
      1. B(C   1,C   0)                  1.3618         0.692993   
      2. B(C   2,C   1)                  1.4182         0.563341   
      3. B(C   3,C   2)                  1.4212         0.557104   
      4. B(C   4,C   3)                  1.3587         0.700948   
      5. B(C   5,C   4)                  1.4220         0.555460   
      6. B(C   6,C   5)                  1.4155         0.568827   
      7. B(C   7,C   6)                  1.3643         0.686778   
      8. B(C   8,C   7)                  1.4088         0.583037   
      9. B(C   9,C   8)                  1.4069         0.587275   
     10. B(C  10,C   9)                  1.2225         1.156118   
     11. B(C  11,C  10)                  1.4069         0.587194   
     12. B(C  12,C  11)                  1.4090         0.582767   
     13. B(C  13,C  12)                  1.3642         0.687005   
     14. B(C  14,C  13)                  1.4154         0.569044   
     15. B(C  15,C  14)                  1.4221         0.555287   
     16. B(C  16,C  15)                  1.3588         0.700669   
     17. B(C  17,C  16)                  1.4212         0.557161   
     18. B(C  17,C   0)                  1.4180         0.563663   
     19. B(C  18,C  17)                  1.4080         0.584888   
     20. B(C  19,C  18)                  1.4251         0.549268   
     21. B(C  19,C  14)                  1.4115         0.577329   
     22. B(C  20,C  19)                  1.4225         0.554479   
     23. B(C  20,C  11)                  1.4300         0.539368   
     24. B(C  21,C  20)                  1.4396         0.520723   
     25. B(C  21,C   8)                  1.4301         0.539243   
     26. B(C  22,C  21)                  1.4224         0.554740   
     27. B(C  22,C   5)                  1.4115         0.577351   
     28. B(C  23,C  22)                  1.4252         0.549031   
     29. B(C  23,C  18)                  1.4206         0.558325   
     30. B(C  23,C   2)                  1.4079         0.585112   
     31. B(H  24,C   0)                  1.0833         0.369026   
     32. B(H  25,C   1)                  1.0833         0.369050   
     33. B(H  26,C   3)                  1.0833         0.369119   
     34. B(H  27,C   4)                  1.0833         0.369101   
     35. B(H  28,C   6)                  1.0832         0.369211   
     36. B(H  29,C   7)                  1.0813         0.371851   
     37. B(H  30,C  12)                  1.0813         0.371851   
     38. B(H  31,C  13)                  1.0832         0.369169   
     39. B(H  32,C  15)                  1.0833         0.369111   
     40. B(H  33,C  16)                  1.0833         0.369111   
     41. A(C   1,C   0,C  17)          121.0430         0.435321   
     42. A(C   1,C   0,H  24)          120.3944         0.361146   
     43. A(C  17,C   0,H  24)          118.5626         0.348715   
     44. A(C   0,C   1,C   2)          121.0364         0.435276   
     45. A(C   2,C   1,H  25)          118.5685         0.348685   
     46. A(C   0,C   1,H  25)          120.3951         0.361150   
     47. A(C   3,C   2,C  23)          119.1436         0.421426   
     48. A(C   1,C   2,C  23)          119.0594         0.422264   
     49. A(C   1,C   2,C   3)          121.7970         0.418585   
     50. A(C   2,C   3,H  26)          118.5534         0.348043   
     51. A(C   4,C   3,H  26)          120.4808         0.361865   
     52. A(C   2,C   3,C   4)          120.9657         0.435298   
     53. A(C   5,C   4,H  27)          118.3700         0.347867   
     54. A(C   3,C   4,H  27)          120.4410         0.361862   
     55. A(C   3,C   4,C   5)          121.1889         0.435066   
     56. A(C   4,C   5,C   6)          121.3236         0.419088   
     57. A(C   6,C   5,C  22)          119.5759         0.421988   
     58. A(C   4,C   5,C  22)          119.1005         0.420201   
     59. A(C   5,C   6,H  28)          118.5275         0.349281   
     60. A(C   5,C   6,C   7)          121.2891         0.435330   
     61. A(C   7,C   6,H  28)          120.1834         0.360622   
     62. A(C   6,C   7,C   8)          120.0467         0.437269   
     63. A(C   6,C   7,H  29)          121.0468         0.361061   
     64. A(C   8,C   7,H  29)          118.9065         0.351161   
     65. A(C   7,C   8,C   9)          129.7078         0.425147   
     66. A(C   9,C   8,C  21)          109.4387         0.419259   
     67. A(C   7,C   8,C  21)          120.8536         0.418718   
     68. A(C   8,C   9,C  10)          128.3106         0.481483   
     69. A(C   9,C  10,C  11)          128.2801         0.481471   
     70. A(C  12,C  11,C  20)          120.8411         0.418700   
     71. A(C  10,C  11,C  20)          109.4509         0.419266   
     72. A(C  10,C  11,C  12)          129.7080         0.425102   
     73. A(C  11,C  12,H  30)          118.9068         0.351134   
     74. A(C  11,C  12,C  13)          120.0494         0.437259   
     75. A(C  13,C  12,H  30)          121.0438         0.361081   
     76. A(C  12,C  13,H  31)          120.1703         0.360635   
     77. A(C  12,C  13,C  14)          121.2971         0.435385   
     78. A(C  14,C  13,H  31)          118.5326         0.349297   
     79. A(C  13,C  14,C  15)          121.3277         0.419093   
     80. A(C  15,C  14,C  19)          119.0964         0.420175   
     81. A(C  13,C  14,C  19)          119.5759         0.422014   
     82. A(C  14,C  15,C  16)          121.1865         0.435011   
     83. A(C  16,C  15,H  32)          120.4495         0.361839   
     84. A(C  14,C  15,H  32)          118.3640         0.347850   
     85. A(C  17,C  16,H  33)          118.5542         0.348047   
     86. A(C  15,C  16,C  17)          120.9671         0.435275   
     87. A(C  15,C  16,H  33)          120.4787         0.361839   
     88. A(C  16,C  17,C  18)          119.1407         0.421405   
     89. A(C   0,C  17,C  18)          119.0629         0.422279   
     90. A(C   0,C  17,C  16)          121.7964         0.418635   
     91. A(C  17,C  18,C  19)          120.0205         0.420333   
     92. A(C  19,C  18,C  23)          120.0852         0.416865   
     93. A(C  17,C  18,C  23)          119.8943         0.421562   
     94. A(C  18,C  19,C  20)          120.2169         0.416353   
     95. A(C  14,C  19,C  20)          120.1943         0.420066   
     96. A(C  14,C  19,C  18)          119.5889         0.419359   
     97. A(C  11,C  20,C  19)          118.0423         0.415008   
     98. A(C  19,C  20,C  21)          119.6965         0.412423   
     99. A(C  11,C  20,C  21)          122.2612         0.410406   
    100. A(C  20,C  21,C  22)          119.7095         0.412457   
    101. A(C   8,C  21,C  22)          118.0320         0.415026   
    102. A(C   8,C  21,C  20)          122.2586         0.410389   
    103. A(C  21,C  22,C  23)          120.2148         0.416356   
    104. A(C   5,C  22,C  23)          119.5825         0.419329   
    105. A(C   5,C  22,C  21)          120.2027         0.420104   
    106. A(C  18,C  23,C  22)          120.0771         0.416833   
    107. A(C   2,C  23,C  22)          120.0188         0.420329   
    108. A(C   2,C  23,C  18)          119.9041         0.421590   
    109. D(H  25,C   1,C   0,C  17)   -180.0000         0.033767   
    110. D(H  25,C   1,C   0,H  24)      0.0001         0.033767   
    111. D(C   2,C   1,C   0,C  17)     -0.0001         0.033767   
    112. D(C   2,C   1,C   0,H  24)    179.9999         0.033767   
    113. D(C  23,C   2,C   1,H  25)    180.0000         0.021748   
    114. D(C   3,C   2,C   1,H  25)     -0.0001         0.021748   
    115. D(C  23,C   2,C   1,C   0)      0.0001         0.021748   
    116. D(C   3,C   2,C   1,C   0)    180.0000         0.021748   
    117. D(H  26,C   3,C   2,C   1)      0.0001         0.021251   
    118. D(C   4,C   3,C   2,C  23)     -0.0002         0.021251   
    119. D(H  26,C   3,C   2,C  23)    179.9999         0.021251   
    120. D(C   4,C   3,C   2,C   1)    180.0000         0.021251   
    121. D(H  27,C   4,C   3,C   2)   -180.0000         0.034612   
    122. D(C   5,C   4,C   3,H  26)    180.0000         0.034612   
    123. D(C   5,C   4,C   3,C   2)      0.0001         0.034612   
    124. D(H  27,C   4,C   3,H  26)     -0.0001         0.034612   
    125. D(C   6,C   5,C   4,H  27)      0.0001         0.021121   
    126. D(C  22,C   5,C   4,H  27)   -180.0000         0.021121   
    127. D(C  22,C   5,C   4,C   3)     -0.0000         0.021121   
    128. D(C   6,C   5,C   4,C   3)    180.0000         0.021121   
    129. D(H  28,C   6,C   5,C   4)     -0.0001         0.022192   
    130. D(H  28,C   6,C   5,C  22)    179.9999         0.022192   
    131. D(C   7,C   6,C   5,C  22)     -0.0000         0.022192   
    132. D(C   7,C   6,C   5,C   4)    179.9999         0.022192   
    133. D(H  29,C   7,C   6,H  28)     -0.0000         0.033115   
    134. D(H  29,C   7,C   6,C   5)    179.9999         0.033115   
    135. D(C   8,C   7,C   6,H  28)   -179.9999         0.033115   
    136. D(C   8,C   7,C   6,C   5)      0.0000         0.033115   
    137. D(C  21,C   8,C   7,C   6)      0.0000         0.023366   
    138. D(C   9,C   8,C   7,H  29)      0.0000         0.023366   
    139. D(C   9,C   8,C   7,C   6)    180.0000         0.023366   
    140. D(C  21,C   8,C   7,H  29)   -179.9999         0.023366   
    141. D(C  10,C   9,C   8,C  21)      0.0000         0.021530   
    142. D(C  10,C   9,C   8,C   7)   -179.9999         0.021530   
    143. D(C  11,C  10,C   9,C   8)      0.0000         0.085008   
    144. D(C  20,C  11,C  10,C   9)     -0.0001         0.021524   
    145. D(C  12,C  11,C  10,C   9)    179.9999         0.021524   
    146. D(H  30,C  12,C  11,C  20)    180.0000         0.023343   
    147. D(H  30,C  12,C  11,C  10)     -0.0000         0.023343   
    148. D(C  13,C  12,C  11,C  20)     -0.0001         0.023343   
    149. D(C  13,C  12,C  11,C  10)    179.9999         0.023343   
    150. D(H  31,C  13,C  12,H  30)      0.0000         0.033139   
    151. D(H  31,C  13,C  12,C  11)   -179.9999         0.033139   
    152. D(C  14,C  13,C  12,H  30)    180.0000         0.033139   
    153. D(C  14,C  13,C  12,C  11)      0.0000         0.033139   
    154. D(C  19,C  14,C  13,H  31)   -180.0000         0.022209   
    155. D(C  19,C  14,C  13,C  12)      0.0000         0.022209   
    156. D(C  15,C  14,C  13,H  31)      0.0001         0.022209   
    157. D(C  15,C  14,C  13,C  12)   -179.9999         0.022209   
    158. D(H  32,C  15,C  14,C  19)   -180.0000         0.021108   
    159. D(H  32,C  15,C  14,C  13)     -0.0000         0.021108   
    160. D(C  16,C  15,C  14,C  19)      0.0001         0.021108   
    161. D(C  16,C  15,C  14,C  13)   -180.0000         0.021108   
    162. D(H  33,C  16,C  15,H  32)      0.0001         0.034582   
    163. D(H  33,C  16,C  15,C  14)   -179.9999         0.034582   
    164. D(C  17,C  16,C  15,H  32)   -180.0000         0.034582   
    165. D(C  17,C  16,C  15,C  14)     -0.0000         0.034582   
    166. D(C   0,C  17,C  16,C  15)   -180.0000         0.021256   
    167. D(C  18,C  17,C   0,H  24)   -180.0000         0.021774   
    168. D(C  18,C  17,C   0,C   1)      0.0001         0.021774   
    169. D(C  16,C  17,C   0,H  24)     -0.0000         0.021774   
    170. D(C   0,C  17,C  16,H  33)     -0.0001         0.021256   
    171. D(C  16,C  17,C   0,C   1)   -179.9999         0.021774   
    172. D(C  18,C  17,C  16,H  33)    179.9999         0.021256   
    173. D(C  18,C  17,C  16,C  15)     -0.0000         0.021256   
    174. D(C  23,C  18,C  17,C  16)    180.0000         0.023522   
    175. D(C  23,C  18,C  17,C   0)     -0.0000         0.023522   
    176. D(C  19,C  18,C  17,C  16)      0.0000         0.023522   
    177. D(C  19,C  18,C  17,C   0)    180.0000         0.023522   
    178. D(C  20,C  19,C  18,C  23)      0.0001         0.020637   
    179. D(C  20,C  19,C  18,C  17)   -179.9999         0.020637   
    180. D(C  14,C  19,C  18,C  23)   -179.9999         0.020637   
    181. D(C  14,C  19,C  18,C  17)      0.0001         0.020637   
    182. D(C  20,C  19,C  14,C  15)    179.9999         0.022890   
    183. D(C  20,C  19,C  14,C  13)     -0.0000         0.022890   
    184. D(C  18,C  19,C  14,C  15)     -0.0001         0.022890   
    185. D(C  18,C  19,C  14,C  13)    180.0000         0.022890   
    186. D(C  21,C  20,C  19,C  18)     -0.0000         0.021044   
    187. D(C  21,C  20,C  19,C  14)   -180.0000         0.021044   
    188. D(C  11,C  20,C  19,C  18)    180.0000         0.021044   
    189. D(C  11,C  20,C  19,C  14)     -0.0000         0.021044   
    190. D(C  21,C  20,C  11,C  12)   -180.0000         0.019877   
    191. D(C  21,C  20,C  11,C  10)      0.0000         0.019877   
    192. D(C  19,C  20,C  11,C  12)      0.0001         0.019877   
    193. D(C  19,C  20,C  11,C  10)   -179.9999         0.019877   
    194. D(C  22,C  21,C  20,C  19)     -0.0001         0.018493   
    195. D(C  22,C  21,C  20,C  11)    180.0000         0.018493   
    196. D(C   8,C  21,C  20,C  19)    180.0000         0.018493   
    197. D(C   8,C  21,C  20,C  11)      0.0000         0.018493   
    198. D(C  22,C  21,C   8,C   9)    180.0000         0.019867   
    199. D(C  22,C  21,C   8,C   7)     -0.0001         0.019867   
    200. D(C  20,C  21,C   8,C   9)     -0.0000         0.019867   
    201. D(C  20,C  21,C   8,C   7)    179.9999         0.019867   
    202. D(C  23,C  22,C  21,C  20)      0.0000         0.021065   
    203. D(C  23,C  22,C  21,C   8)   -180.0000         0.021065   
    204. D(C   5,C  22,C  21,C  20)   -179.9999         0.021065   
    205. D(C   5,C  22,C  21,C   8)      0.0001         0.021065   
    206. D(C  23,C  22,C   5,C   6)   -180.0000         0.022892   
    207. D(C  23,C  22,C   5,C   4)      0.0001         0.022892   
    208. D(C  21,C  22,C   5,C   6)     -0.0000         0.022892   
    209. D(C  21,C  22,C   5,C   4)   -180.0000         0.022892   
    210. D(C  18,C  23,C  22,C  21)      0.0001         0.020618   
    211. D(C  18,C  23,C  22,C   5)   -180.0000         0.020618   
    212. D(C   2,C  23,C  22,C   5)     -0.0001         0.020618   
    213. D(C  22,C  23,C  18,C  19)     -0.0001         0.021348   
    214. D(C  22,C  23,C  18,C  17)    179.9999         0.021348   
    215. D(C   2,C  23,C  18,C  19)   -180.0000         0.021348   
    216. D(C   2,C  23,C  18,C  17)      0.0000         0.021348   
    217. D(C  22,C  23,C   2,C   3)      0.0002         0.023541   
    218. D(C   2,C  23,C  22,C  21)    179.9999         0.020618   
    219. D(C  22,C  23,C   2,C   1)   -179.9999         0.023541   
    220. D(C  18,C  23,C   2,C   3)   -180.0000         0.023541   
    221. D(C  18,C  23,C   2,C   1)     -0.0001         0.023541   
    -----------------------------------------------------------------

Number of atoms                         .... 34
Number of degrees of freedom            .... 221

         *************************************************************
         *                GEOMETRY OPTIMIZATION CYCLE   1            *
         *************************************************************
---------------------------------
CARTESIAN COORDINATES (ANGSTROEM)
---------------------------------
  C      2.450248   -2.790888   -0.000009
  C      1.279563   -3.486588   -0.000042
  C      0.030203   -2.815507   -0.000118
  C     -1.201089   -3.525276   -0.000153
  C     -2.388586   -2.865049   -0.000225
  C     -2.441082   -1.443998   -0.000270
  C     -3.676648   -0.753238   -0.000345
  C     -3.726191    0.610114   -0.000387
  C     -2.533104    1.359345   -0.000356
  C     -2.347526    2.753910   -0.000389
  C     -1.296706    3.378603   -0.000362
  C      0.016840    2.874663   -0.000291
  C      1.245514    3.564241   -0.000260
  C      2.419126    2.868846   -0.000187
  C      2.435165    1.453494   -0.000143
  C      3.658238    0.727908   -0.000064
  C      3.670285   -0.630841   -0.000021
  C      2.458201   -1.372882   -0.000053
  C      1.231370   -0.682042   -0.000130
  C      1.215545    0.742942   -0.000174
  C     -0.021550    1.445156   -0.000250
  C     -1.259099    0.709686   -0.000281
  C     -1.233943   -0.712465   -0.000238
  C      0.010119   -1.407787   -0.000163
  H      3.398816   -3.314180    0.000050
  H      1.285736   -4.569888   -0.000008
  H     -1.174480   -4.608215   -0.000119
  H     -3.322109   -3.414621   -0.000251
  H     -4.592592   -1.331482   -0.000370
  H     -4.672195    1.133752   -0.000445
  H      1.238041    4.645474   -0.000293
  H      3.364869    3.397010   -0.000162
  H      4.587197    1.285145   -0.000040
  H      4.608703   -1.171997    0.000040

----------------------------
CARTESIAN COORDINATES (A.U.)
----------------------------
  NO LB      ZA    FRAG     MASS         X           Y           Z
   0 C     6.0000    0    12.011    4.630297   -5.274015   -0.000018
   1 C     6.0000    0    12.011    2.418023   -6.588697   -0.000079
   2 C     6.0000    0    12.011    0.057076   -5.320538   -0.000223
   3 C     6.0000    0    12.011   -2.269730   -6.661807   -0.000289
   4 C     6.0000    0    12.011   -4.513773   -5.414158   -0.000425
   5 C     6.0000    0    12.011   -4.612976   -2.728762   -0.000510
   6 C     6.0000    0    12.011   -6.947858   -1.423414   -0.000652
   7 C     6.0000    0    12.011   -7.041481    1.152949   -0.000731
   8 C     6.0000    0    12.011   -4.786873    2.568789   -0.000673
   9 C     6.0000    0    12.011   -4.436181    5.204136   -0.000735
  10 C     6.0000    0    12.011   -2.450420    6.384634   -0.000685
  11 C     6.0000    0    12.011    0.031822    5.432326   -0.000551
  12 C     6.0000    0    12.011    2.353680    6.735440   -0.000491
  13 C     6.0000    0    12.011    4.571486    5.421333   -0.000354
  14 C     6.0000    0    12.011    4.601795    2.746705   -0.000269
  15 C     6.0000    0    12.011    6.913068    1.375546   -0.000121
  16 C     6.0000    0    12.011    6.935834   -1.192116   -0.000040
  17 C     6.0000    0    12.011    4.645326   -2.594370   -0.000100
  18 C     6.0000    0    12.011    2.326952   -1.288873   -0.000245
  19 C     6.0000    0    12.011    2.297048    1.403957   -0.000329
  20 C     6.0000    0    12.011   -0.040724    2.730949   -0.000472
  21 C     6.0000    0    12.011   -2.379352    1.341112   -0.000532
  22 C     6.0000    0    12.011   -2.331814   -1.346363   -0.000449
  23 C     6.0000    0    12.011    0.019122   -2.660332   -0.000307
  24 H     1.0000    0     1.008    6.422831   -6.262892    0.000094
  25 H     1.0000    0     1.008    2.429690   -8.635836   -0.000015
  26 H     1.0000    0     1.008   -2.219445   -8.708265   -0.000225
  27 H     1.0000    0     1.008   -6.277875   -6.452699   -0.000474
  28 H     1.0000    0     1.008   -8.678741   -2.516136   -0.000699
  29 H     1.0000    0     1.008   -8.829170    2.142482   -0.000842
  30 H     1.0000    0     1.008    2.339559    8.778673   -0.000554
  31 H     1.0000    0     1.008    6.358681    6.419419   -0.000306
  32 H     1.0000    0     1.008    8.668545    2.428572   -0.000075
  33 H     1.0000    0     1.008    8.709186   -2.214753    0.000075

--------------------------------
INTERNAL COORDINATES (ANGSTROEM)
--------------------------------
 C      0   0   0     0.000000000000     0.00000000     0.00000000
 C      1   0   0     1.361800779278     0.00000000     0.00000000
 C      2   1   0     1.418185011538   121.03635952     0.00000000
 C      3   2   1     1.421215334211   121.79701688   180.00000000
 C      4   3   2     1.358693709272   120.96573845   179.99996874
 C      5   4   3     1.422019842312   121.18893479     0.00000000
 C      6   5   4     1.415546926965   121.32360260   179.99999481
 C      7   6   5     1.364252755819   121.28911776   179.99994782
 C      8   7   6     1.408830279446   120.04667824     0.00000000
 C      9   8   7     1.406858875368   129.70777516   179.99996024
 C     10   9   8     1.222482517963   128.31064373   180.00008106
 C     11  10   9     1.406896484439   128.28006353     0.00000000
 C     12  11  10     1.408956462215   129.70799577   179.99994178
 C     13  12  11     1.364162923000   120.04940967   179.99991760
 C     14  13  12     1.415443216359   121.29707265     0.00000000
 C     15  14  13     1.422104868121   121.32772068   180.00013606
 C     16  15  14     1.358801852979   121.18646756   180.00000283
 C      1   2   3     1.418029231215   121.04296290     0.00000000
 C     18   1   2     1.407967618401   119.06291995     0.00000000
 C     15  14  13     1.411508526944   119.57586886     0.00000000
 C     20  15  14     1.422501188550   120.19426231     0.00000000
 C      9   8   7     1.430085764478   120.85357469     0.00000000
 C      6   5   4     1.411497869355   119.10048345     0.00000000
 C      3   2   1     1.407863368424   119.05940826     0.00000000
 H      1   2   3     1.083335155758   120.39442601   179.99993210
 H      2   1   3     1.083317282523   120.39510145   180.00014477
 H      4   3   2     1.083265879129   118.55341182     0.00000000
 H      5   4   3     1.083279254384   120.44104774   180.00002455
 H      7   6   5     1.083198437424   118.52746769     0.00000000
 H      8   7   6     1.081259054166   121.04682069   179.99994275
 H     13  12  11     1.081258584721   118.90679869     0.00000000
 H     14  13  12     1.083229663666   120.17034934   180.00005300
 H     16  15  14     1.083271888882   118.36401527     0.00000000
 H     17  16  15     1.083271777706   120.47870144   180.00009898

---------------------------
INTERNAL COORDINATES (A.U.)
---------------------------
 C      0   0   0     0.000000000000     0.00000000     0.00000000
 C      1   0   0     2.573430521796     0.00000000     0.00000000
 C      2   1   0     2.679981279039   121.03635952     0.00000000
 C      3   2   1     2.685707758987   121.79701688   180.00000000
 C      4   3   2     2.567559010406   120.96573845   179.99996874
 C      5   4   3     2.687228058972   121.18893479     0.00000000
 C      6   5   4     2.674996021678   121.32360260   179.99999481
 C      7   6   5     2.578064085944   121.28911776   179.99994782
 C      8   7   6     2.662303397328   120.04667824     0.00000000
 C      9   8   7     2.658577983521   129.70777516   179.99996024
 C     10   9   8     2.310157162457   128.31064373   180.00008106
 C     11  10   9     2.658649054367   128.28006353     0.00000000
 C     12  11  10     2.662541848204   129.70799577   179.99994178
 C     13  12  11     2.577894326520   120.04940967   179.99991760
 C     14  13  12     2.674800037035   121.29707265     0.00000000
 C     15  14  13     2.687388734464   121.32772068   180.00013606
 C     16  15  14     2.567763372395   121.18646756   180.00000283
 C      1   2   3     2.679686896892   121.04296290     0.00000000
 C     18   1   2     2.660673204207   119.06291995     0.00000000
 C     15  14  13     2.667364551619   119.57586886     0.00000000
 C     20  15  14     2.688137671538   120.19426231     0.00000000
 C      9   8   7     2.702470442883   120.85357469     0.00000000
 C      6   5   4     2.667344411694   119.10048345     0.00000000
 C      3   2   1     2.660476200302   119.05940826     0.00000000
 H      1   2   3     2.047206755632   120.39442601   179.99993210
 H      2   1   3     2.047172980113   120.39510145   180.00014477
 H      4   3   2     2.047075841775   118.55341182     0.00000000
 H      5   4   3     2.047101117345   120.44104774   180.00002455
 H      7   6   5     2.046948395423   118.52746769     0.00000000
 H      8   7   6     2.043283492197   121.04682069   179.99994275
 H     13  12  11     2.043282605073   118.90679869     0.00000000
 H     14  13  12     2.047007404468   120.17034934   180.00005300
 H     16  15  14     2.047087198563   118.36401527     0.00000000
 H     17  16  15     2.047086988470   120.47870144   180.00009898

---------------------
BASIS SET INFORMATION
---------------------
There are 2 groups of distinct atoms

 Group   1 Type C   : 11s5p1d contracted to 4s3p1d pattern {6311/311/1}
 Group   2 Type H   : 5s1p contracted to 3s1p pattern {311/1}

Atom   0C    basis set group =>   1
Atom   1C    basis set group =>   1
Atom   2C    basis set group =>   1
Atom   3C    basis set group =>   1
Atom   4C    basis set group =>   1
Atom   5C    basis set group =>   1
Atom   6C    basis set group =>   1
Atom   7C    basis set group =>   1
Atom   8C    basis set group =>   1
Atom   9C    basis set group =>   1
Atom  10C    basis set group =>   1
Atom  11C    basis set group =>   1
Atom  12C    basis set group =>   1
Atom  13C    basis set group =>   1
Atom  14C    basis set group =>   1
Atom  15C    basis set group =>   1
Atom  16C    basis set group =>   1
Atom  17C    basis set group =>   1
Atom  18C    basis set group =>   1
Atom  19C    basis set group =>   1
Atom  20C    basis set group =>   1
Atom  21C    basis set group =>   1
Atom  22C    basis set group =>   1
Atom  23C    basis set group =>   1
Atom  24H    basis set group =>   2
Atom  25H    basis set group =>   2
Atom  26H    basis set group =>   2
Atom  27H    basis set group =>   2
Atom  28H    basis set group =>   2
Atom  29H    basis set group =>   2
Atom  30H    basis set group =>   2
Atom  31H    basis set group =>   2
Atom  32H    basis set group =>   2
Atom  33H    basis set group =>   2
---------------------------------
AUXILIARY/J BASIS SET INFORMATION
---------------------------------
There are 2 groups of distinct atoms

 Group   1 Type C   : 12s5p4d2f1g contracted to 6s4p3d1f1g pattern {711111/2111/211/2/1}
 Group   2 Type H   : 5s2p1d contracted to 3s1p1d pattern {311/2/1}

Atom   0C    basis set group =>   1
Atom   1C    basis set group =>   1
Atom   2C    basis set group =>   1
Atom   3C    basis set group =>   1
Atom   4C    basis set group =>   1
Atom   5C    basis set group =>   1
Atom   6C    basis set group =>   1
Atom   7C    basis set group =>   1
Atom   8C    basis set group =>   1
Atom   9C    basis set group =>   1
Atom  10C    basis set group =>   1
Atom  11C    basis set group =>   1
Atom  12C    basis set group =>   1
Atom  13C    basis set group =>   1
Atom  14C    basis set group =>   1
Atom  15C    basis set group =>   1
Atom  16C    basis set group =>   1
Atom  17C    basis set group =>   1
Atom  18C    basis set group =>   1
Atom  19C    basis set group =>   1
Atom  20C    basis set group =>   1
Atom  21C    basis set group =>   1
Atom  22C    basis set group =>   1
Atom  23C    basis set group =>   1
Atom  24H    basis set group =>   2
Atom  25H    basis set group =>   2
Atom  26H    basis set group =>   2
Atom  27H    basis set group =>   2
Atom  28H    basis set group =>   2
Atom  29H    basis set group =>   2
Atom  30H    basis set group =>   2
Atom  31H    basis set group =>   2
Atom  32H    basis set group =>   2
Atom  33H    basis set group =>   2


           ************************************************************
           *        Program running with 4 parallel MPI-processes     *
           *              working on a common directory               *
           ************************************************************
------------------------------------------------------------------------------
                           ORCA GTO INTEGRAL CALCULATION
                           -- RI-GTO INTEGRALS CHOSEN --
------------------------------------------------------------------------------
------------------------------------------------------------------------------
                   ___                                                        
                  /   \      - P O W E R E D   B Y -                         
                 /     \                                                     
                 |  |  |   _    _      __       _____    __    __             
                 |  |  |  | |  | |    /  \     |  _  \  |  |  /  |          
                  \  \/   | |  | |   /    \    | | | |  |  | /  /          
                 / \  \   | |__| |  /  /\  \   | |_| |  |  |/  /          
                |  |  |   |  __  | /  /__\  \  |    /   |      \           
                |  |  |   | |  | | |   __   |  |    \   |  |\   \          
                \     /   | |  | | |  |  |  |  | |\  \  |  | \   \       
                 \___/    |_|  |_| |__|  |__|  |_| \__\ |__|  \__/        
                                                                              
                      - O R C A' S   B I G   F R I E N D -                    
                                      &                                       
                       - I N T E G R A L  F E E D E R -                       
                                                                              
 v1 FN, 2020, v2 2021                                                         
------------------------------------------------------------------------------


Reading SHARK input file eight_seven_opt.SHARKINP.tmp ... ok
----------------------
SHARK INTEGRAL PACKAGE
----------------------

Number of atoms                             ...     34
Number of basis functions                   ...    492
Number of shells                            ...    232
Maximum angular momentum                    ...      2
Integral batch strategy                     ... SHARK/LIBINT Hybrid
RI-J (if used) integral strategy            ... SPLIT-RIJ (Revised 2003 algorithm where possible)
Printlevel                                  ...      1
Contraction scheme used                     ... SEGMENTED contraction
Coulomb Range Separation                    ... NOT USED
Exchange Range Separation                   ... NOT USED
Finite Nucleus Model                        ... NOT USED
Auxiliary Coulomb fitting basis             ... AVAILABLE
   # of basis functions in Aux-J            ...   1286
   # of shells in Aux-J                     ...    410
   Maximum angular momentum in Aux-J        ...      4
Auxiliary J/K fitting basis                 ... NOT available
Auxiliary Correlation fitting basis         ... NOT available
Auxiliary 'external' fitting basis          ... NOT available
Integral threshold                          ...     2.500000e-11
Primitive cut-off                           ...     2.500000e-12
Primitive pair pre-selection threshold      ...     2.500000e-12

Calculating pre-screening integrals         ... done (  0.1 sec) Dimension = 232
Organizing shell pair data                  ... done (  0.2 sec)
Shell pair information
Total number of shell pairs                 ...     27028
Shell pairs after pre-screening             ...     19500
Total number of primitive shell pairs       ...    110280
Primitive shell pairs kept                  ...     47971
          la=0 lb=0:   5451 shell pairs
          la=1 lb=0:   7580 shell pairs
          la=1 lb=1:   2630 shell pairs
          la=2 lb=0:   2096 shell pairs
          la=2 lb=1:   1506 shell pairs
          la=2 lb=2:    237 shell pairs

Calculating one electron integrals          ... done (  0.1 sec)
Calculating RI/J V-Matrix + Cholesky decomp.... done (  0.2 sec)
Calculating Nuclear repulsion               ... done (  0.0 sec) ENN=   1802.760698277596 Eh

SHARK setup successfully completed in   0.9 seconds

Maximum memory used throughout the entire GTOINT-calculation: 32.6 MB


           ************************************************************
           *        Program running with 4 parallel MPI-processes     *
           *              working on a common directory               *
           ************************************************************
-------------------------------------------------------------------------------
                                 ORCA SCF
-------------------------------------------------------------------------------

------------
SCF SETTINGS
------------
Hamiltonian:
 Density Functional     Method          .... DFT(GTOs)
 Exchange Functional    Exchange        .... B88
   X-Alpha parameter    XAlpha          ....  0.666667
   Becke's b parameter  XBeta           ....  0.004200
 Correlation Functional Correlation     .... LYP
 LDA part of GGA corr.  LDAOpt          .... VWN-5
 Gradients option       PostSCFGGA      .... off
 Hybrid DFT is turned on
   Fraction HF Exchange ScalHFX         ....  0.200000
   Scaling of DF-GGA-X  ScalDFX         ....  0.720000
   Scaling of DF-GGA-C  ScalDFC         ....  0.810000
   Scaling of DF-LDA-C  ScalLDAC        ....  1.000000
   Perturbative correction              ....  0.000000
   Density functional embedding theory  .... OFF
   NL short-range parameter             ....  4.800000
 RI-approximation to the Coulomb term is turned on
   Number of AuxJ basis functions       .... 1286
   RIJ-COSX (HFX calculated with COS-X)).... on


General Settings:
 Integral files         IntName         .... eight_seven_opt
 Hartree-Fock type      HFTyp           .... RHF
 Total Charge           Charge          ....    0
 Multiplicity           Mult            ....    1
 Number of Electrons    NEL             ....  154
 Basis Dimension        Dim             ....  492
 Nuclear Repulsion      ENuc            ....   1802.7606982776 Eh

Convergence Acceleration:
 DIIS                   CNVDIIS         .... on
   Start iteration      DIISMaxIt       ....    12
   Startup error        DIISStart       ....  0.200000
   # of expansion vecs  DIISMaxEq       ....     5
   Bias factor          DIISBfac        ....   1.050
   Max. coefficient     DIISMaxC        ....  10.000
 Trust-Rad. Augm. Hess. CNVTRAH         .... auto
   Auto Start mean grad. ratio tolernc. ....  1.125000
   Auto Start start iteration           ....    20
   Auto Start num. interpolation iter.  ....    10
   Max. Number of Micro iterations      ....    16
   Max. Number of Macro iterations      .... Maxiter - #DIIS iter
   Number of Davidson start vectors     ....     2
   Converg. threshold I  (grad. norm)   ....   1.000e-05
   Converg. threshold II (energy diff.) ....   1.000e-08
   Grad. Scal. Fac. for Micro threshold ....   0.100
   Minimum threshold for Micro iter.    ....   0.010
   NR start threshold (gradient norm)   ....   0.001
   Initial trust radius                 ....   0.400
   Minimum AH scaling param. (alpha)    ....   1.000
   Maximum AH scaling param. (alpha)    .... 1000.000
   Orbital update algorithm             .... Taylor
   White noise on init. David. guess    .... on
   Maximum white noise                  ....   0.010
   Quad. conv. algorithm                .... NR
 SOSCF                  CNVSOSCF        .... on
   Start iteration      SOSCFMaxIt      ....   150
   Startup grad/error   SOSCFStart      ....  0.003300
 Level Shifting         CNVShift        .... on
   Level shift para.    LevelShift      ....    0.2500
   Turn off err/grad.   ShiftErr        ....    0.0010
 Zerner damping         CNVZerner       .... off
 Static damping         CNVDamp         .... on
   Fraction old density DampFac         ....    0.7000
   Max. Damping (<1)    DampMax         ....    0.9800
   Min. Damping (>=0)   DampMin         ....    0.0000
   Turn off err/grad.   DampErr         ....    0.1000
 Fernandez-Rico         CNVRico         .... off

SCF Procedure:
 Maximum # iterations   MaxIter         ....   125
 SCF integral mode      SCFMode         .... Direct
   Integral package                     .... SHARK and LIBINT hybrid scheme
 Reset frequency        DirectResetFreq ....    20
 Integral Threshold     Thresh          ....  2.500e-11 Eh
 Primitive CutOff       TCut            ....  2.500e-12 Eh

Convergence Tolerance:
 Convergence Check Mode ConvCheckMode   .... Total+1el-Energy
 Convergence forced     ConvForced      .... 0
 Energy Change          TolE            ....  1.000e-08 Eh
 1-El. energy change                    ....  1.000e-05 Eh
 Orbital Gradient       TolG            ....  1.000e-05
 Orbital Rotation angle TolX            ....  1.000e-05
 DIIS Error             TolErr          ....  5.000e-07


Diagonalization of the overlap matrix:
Smallest eigenvalue                        ... 1.768e-05
Time for diagonalization                   ...    0.046 sec
Threshold for overlap eigenvalues          ... 1.000e-08
Number of eigenvalues below threshold      ... 0
Time for construction of square roots      ...    0.042 sec
Total time needed                          ...    0.092 sec

Time for model grid setup =    0.634 sec

------------------------------
INITIAL GUESS: MODEL POTENTIAL
------------------------------
Loading Hartree-Fock densities                     ... done
Calculating cut-offs                               ... done
Initializing the effective Hamiltonian             ... done
Setting up the integral package (SHARK)            ... done
Starting the Coulomb interaction                   ... done (   0.9 sec)
Reading the grid                                   ... done
Mapping shells                                     ... done
Starting the XC term evaluation                    ... done (   0.6 sec)
  promolecular density results
     # of electrons  =    153.982321599
     EX              =   -126.516340059
     EC              =     -5.266605277
     EX+EC           =   -131.782945336
Transforming the Hamiltonian                       ... done (   0.0 sec)
Diagonalizing the Hamiltonian                      ... done (   0.0 sec)
Back transforming the eigenvectors                 ... done (   0.0 sec)
Now organizing SCF variables                       ... done
                      ------------------
                      INITIAL GUESS DONE (   2.2 sec)
                      ------------------
-------------------
DFT GRID GENERATION
-------------------

General Integration Accuracy     IntAcc      ... 4.388
Radial Grid Type                 RadialGrid  ... OptM3 with GC (2021)
Angular Grid (max. ang.)         AngularGrid ... 4 (Lebedev-302)
Angular grid pruning method      GridPruning ... 4 (adaptive)
Weight generation scheme         WeightScheme... Becke
Basis function cutoff            BFCut       ... 1.0000e-11
Integration weight cutoff        WCut        ... 1.0000e-14
Angular grids for H and He will be reduced by one unit
Partially contracted basis set               ... off
Rotationally invariant grid construction     ... off

Total number of grid points                  ...   174211
Total number of batches                      ...     2738
Average number of points per batch           ...       63
Average number of grid points per atom       ...     5124
Time for grid setup =    1.955 sec

--------------------
COSX GRID GENERATION
--------------------

GRIDX 1
-------
General Integration Accuracy     IntAcc      ... 3.816
Radial Grid Type                 RadialGrid  ... OptM3 with GC (2021)
Angular Grid (max. ang.)         AngularGrid ... 1 (Lebedev-50)
Angular grid pruning method      GridPruning ... 4 (adaptive)
Weight generation scheme         WeightScheme... Becke
Basis function cutoff            BFCut       ... 1.0000e-11
Integration weight cutoff        WCut        ... 1.0000e-14
Angular grids for H and He will be reduced by one unit
Partially contracted basis set               ... on
Rotationally invariant grid construction     ... off

Total number of grid points                  ...    22165
Total number of batches                      ...      361
Average number of points per batch           ...       61
Average number of grid points per atom       ...      652
UseSFitting                                  ... on

GRIDX 2
-------
General Integration Accuracy     IntAcc      ... 4.020
Radial Grid Type                 RadialGrid  ... OptM3 with GC (2021)
Angular Grid (max. ang.)         AngularGrid ... 2 (Lebedev-110)
Angular grid pruning method      GridPruning ... 4 (adaptive)
Weight generation scheme         WeightScheme... Becke
Basis function cutoff            BFCut       ... 1.0000e-11
Integration weight cutoff        WCut        ... 1.0000e-14
Angular grids for H and He will be reduced by one unit
Partially contracted basis set               ... on
Rotationally invariant grid construction     ... off

Total number of grid points                  ...    49059
Total number of batches                      ...      787
Average number of points per batch           ...       62
Average number of grid points per atom       ...     1443
UseSFitting                                  ... on

GRIDX 3
-------
General Integration Accuracy     IntAcc      ... 4.338
Radial Grid Type                 RadialGrid  ... OptM3 with GC (2021)
Angular Grid (max. ang.)         AngularGrid ... 3 (Lebedev-194)
Angular grid pruning method      GridPruning ... 4 (adaptive)
Weight generation scheme         WeightScheme... Becke
Basis function cutoff            BFCut       ... 1.0000e-11
Integration weight cutoff        WCut        ... 1.0000e-14
Angular grids for H and He will be reduced by one unit
Partially contracted basis set               ... on
Rotationally invariant grid construction     ... off

Total number of grid points                  ...   107956
Total number of batches                      ...     1704
Average number of points per batch           ...       63
Average number of grid points per atom       ...     3175
UseSFitting                                  ... on

Time for X-Grid setup             =    2.559 sec

--------------
SCF ITERATIONS
--------------
ITER       Energy         Delta-E        Max-DP      RMS-DP      [F,P]     Damp
               ***  Starting incremental Fock matrix formation  ***
  0   -919.7880323498   0.000000000000 0.05853475  0.00128882  0.1483252 0.7000
  1   -919.9560761891  -0.168043839293 0.04268668  0.00099867  0.0813476 0.7000
                               ***Turning on DIIS***
  2   -920.0389323036  -0.082856114503 0.08634771  0.00204864  0.0398359 0.0000
  3   -920.1611863770  -0.122254073435 0.01948469  0.00051405  0.0411509 0.0000
  4   -920.1863582355  -0.025171858415 0.00643871  0.00016738  0.0075874 0.0000
                      *** Initiating the SOSCF procedure ***
                           *** Shutting down DIIS ***
                      *** Re-Reading the Fockian *** 
                      *** Removing any level shift *** 
ITER      Energy       Delta-E        Grad      Rot      Max-DP    RMS-DP
  5   -920.18734753  -0.0009892967  0.000558  0.000558  0.001375  0.000048
               *** Restarting incremental Fock matrix formation ***
  6   -920.18746775  -0.0001202219  0.000219  0.001137  0.001848  0.000049
  7   -920.18746365   0.0000041065  0.000396  0.000879  0.000827  0.000015
  8   -920.18747495  -0.0000113071  0.000084  0.000335  0.000371  0.000011
  9   -920.18747490   0.0000000567  0.000090  0.000145  0.000153  0.000003
 10   -920.18747553  -0.0000006360  0.000056  0.000224  0.000144  0.000003
 11   -920.18747543   0.0000001076  0.000128  0.000182  0.000096  0.000001
 12   -920.18747560  -0.0000001689  0.000022  0.000052  0.000057  0.000001
 13   -920.18747556   0.0000000365  0.000021  0.000031  0.000032  0.000001
 14   -920.18747561  -0.0000000512  0.000003  0.000015  0.000013  0.000000
 15   -920.18747560   0.0000000072  0.000005  0.000009  0.000009  0.000000
                  ***Gradient check signals convergence***
              ***Rediagonalizing the Fockian in SOSCF/NRSCF***

               *****************************************************
               *                     SUCCESS                       *
               *           SCF CONVERGED AFTER  16 CYCLES          *
               *****************************************************

Old exchange energy                            =    -25.655526201 Eh
New exchange energy                            =    -25.655604180 Eh
Exchange energy change after final integration =     -0.000077979 Eh
Total energy after final integration           =   -920.187553574 Eh
Final COS-X integration done in                =    39.930 sec

----------------
TOTAL SCF ENERGY
----------------

Total Energy       :         -920.18755357 Eh          -25039.57632 eV

Components:
Nuclear Repulsion  :         1802.76069828 Eh           49055.61254 eV
Electronic Energy  :        -2722.94825185 Eh          -74095.18886 eV
One Electron Energy:        -4824.89265379 Eh         -131292.00387 eV
Two Electron Energy:         2101.94440194 Eh           57196.81501 eV
Max COSX asymmetry :            0.00000198 Eh               0.00005 eV

Virial components:
Potential Energy   :        -1837.50533536 Eh          -50001.06218 eV
Kinetic Energy     :          917.31778179 Eh           24961.48586 eV
Virial Ratio       :            2.00312844


DFT components:
N(Alpha)           :       77.000188012059 electrons
N(Beta)            :       77.000188012059 electrons
N(Total)           :      154.000376024118 electrons
E(X)               :     -101.947858338041 Eh       
E(C)               :       -6.200162277353 Eh       
E(XC)              :     -108.148020615393 Eh       
DFET-embed. en.    :        0.000000000000 Eh       

---------------
SCF CONVERGENCE
---------------

  Last Energy change         ...    8.2845e-09  Tolerance :   1.0000e-08
  Last MAX-Density change    ...    9.9920e-16  Tolerance :   1.0000e-07
  Last RMS-Density change    ...    1.7798e-17  Tolerance :   5.0000e-09
  Last Orbital Gradient      ...    4.0391e-07  Tolerance :   1.0000e-05
  Last Orbital Rotation      ...    2.5666e-06  Tolerance :   1.0000e-05

             **** THE GBW FILE WAS UPDATED (eight_seven_opt.gbw) ****
             **** DENSITY eight_seven_opt.scfp WAS UPDATED ****
             **** ENERGY FILE WAS UPDATED (eight_seven_opt.en.tmp) ****
             **** THE GBW FILE WAS UPDATED (eight_seven_opt.gbw) ****
             **** DENSITY eight_seven_opt.scfp WAS UPDATED ****
----------------
ORBITAL ENERGIES
----------------

  NO   OCC          E(Eh)            E(eV) 
   0   2.0000     -10.209609      -277.8176 
   1   2.0000     -10.209596      -277.8172 
   2   2.0000     -10.196610      -277.4639 
   3   2.0000     -10.196221      -277.4533 
   4   2.0000     -10.191364      -277.3211 
   5   2.0000     -10.191358      -277.3210 
   6   2.0000     -10.188709      -277.2489 
   7   2.0000     -10.188642      -277.2470 
   8   2.0000     -10.188630      -277.2467 
   9   2.0000     -10.188313      -277.2381 
  10   2.0000     -10.187732      -277.2223 
  11   2.0000     -10.187684      -277.2210 
  12   2.0000     -10.181508      -277.0529 
  13   2.0000     -10.181492      -277.0525 
  14   2.0000     -10.180711      -277.0312 
  15   2.0000     -10.180698      -277.0309 
  16   2.0000     -10.179441      -276.9967 
  17   2.0000     -10.179268      -276.9920 
  18   2.0000     -10.179258      -276.9917 
  19   2.0000     -10.178760      -276.9782 
  20   2.0000     -10.178507      -276.9713 
  21   2.0000     -10.178499      -276.9710 
  22   2.0000     -10.174092      -276.8511 
  23   2.0000     -10.172018      -276.7947 
  24   2.0000      -0.917735       -24.9728 
  25   2.0000      -0.882500       -24.0140 
  26   2.0000      -0.880876       -23.9699 
  27   2.0000      -0.834766       -22.7151 
  28   2.0000      -0.833516       -22.6811 
  29   2.0000      -0.814177       -22.1549 
  30   2.0000      -0.787239       -21.4219 
  31   2.0000      -0.769416       -20.9369 
  32   2.0000      -0.754263       -20.5245 
  33   2.0000      -0.746818       -20.3219 
  34   2.0000      -0.721309       -19.6278 
  35   2.0000      -0.721095       -19.6220 
  36   2.0000      -0.644756       -17.5447 
  37   2.0000      -0.644153       -17.5283 
  38   2.0000      -0.640270       -17.4226 
  39   2.0000      -0.631750       -17.1908 
  40   2.0000      -0.630318       -17.1518 
  41   2.0000      -0.571975       -15.5642 
  42   2.0000      -0.555940       -15.1279 
  43   2.0000      -0.546629       -14.8745 
  44   2.0000      -0.541306       -14.7297 
  45   2.0000      -0.533338       -14.5129 
  46   2.0000      -0.522949       -14.2302 
  47   2.0000      -0.485412       -13.2087 
  48   2.0000      -0.480994       -13.0885 
  49   2.0000      -0.469177       -12.7670 
  50   2.0000      -0.464038       -12.6271 
  51   2.0000      -0.458066       -12.4646 
  52   2.0000      -0.445687       -12.1278 
  53   2.0000      -0.437119       -11.8946 
  54   2.0000      -0.434343       -11.8191 
  55   2.0000      -0.428712       -11.6659 
  56   2.0000      -0.419354       -11.4112 
  57   2.0000      -0.418148       -11.3784 
  58   2.0000      -0.407563       -11.0903 
  59   2.0000      -0.396763       -10.7965 
  60   2.0000      -0.394440       -10.7333 
  61   2.0000      -0.384964       -10.4754 
  62   2.0000      -0.382354       -10.4044 
  63   2.0000      -0.372736       -10.1427 
  64   2.0000      -0.368218       -10.0197 
  65   2.0000      -0.342275        -9.3138 
  66   2.0000      -0.340404        -9.2629 
  67   2.0000      -0.333889        -9.0856 
  68   2.0000      -0.331538        -9.0216 
  69   2.0000      -0.324138        -8.8202 
  70   2.0000      -0.281647        -7.6640 
  71   2.0000      -0.276109        -7.5133 
  72   2.0000      -0.270152        -7.3512 
  73   2.0000      -0.260829        -7.0975 
  74   2.0000      -0.258683        -7.0391 
  75   2.0000      -0.214274        -5.8307 
  76   2.0000      -0.212351        -5.7784 
  77   0.0000      -0.073290        -1.9943 
  78   0.0000      -0.065452        -1.7810 
  79   0.0000      -0.058486        -1.5915 
  80   0.0000      -0.025297        -0.6884 
  81   0.0000      -0.019944        -0.5427 
  82   0.0000      -0.005915        -0.1610 
  83   0.0000       0.019693         0.5359 
  84   0.0000       0.045565         1.2399 
  85   0.0000       0.053086         1.4446 
  86   0.0000       0.058238         1.5847 
  87   0.0000       0.060194         1.6380 
  88   0.0000       0.070495         1.9183 
  89   0.0000       0.081185         2.2092 
  90   0.0000       0.083266         2.2658 
  91   0.0000       0.091830         2.4988 
  92   0.0000       0.097726         2.6593 
  93   0.0000       0.105849         2.8803 
  94   0.0000       0.122443         3.3318 
  95   0.0000       0.139001         3.7824 
  96   0.0000       0.157538         4.2868 
  97   0.0000       0.167648         4.5619 
  98   0.0000       0.182683         4.9711 
  99   0.0000       0.189395         5.1537 
 100   0.0000       0.218967         5.9584 
 101   0.0000       0.219617         5.9761 
 102   0.0000       0.227162         6.1814 
 103   0.0000       0.246146         6.6980 
 104   0.0000       0.249036         6.7766 
 105   0.0000       0.254712         6.9311 
 106   0.0000       0.260879         7.0989 
 107   0.0000       0.262077         7.1315 
 108   0.0000       0.262910         7.1541 
 109   0.0000       0.276261         7.5174 
 110   0.0000       0.286180         7.7874 
 111   0.0000       0.289616         7.8809 
 112   0.0000       0.300932         8.1888 
 113   0.0000       0.302156         8.2221 
 114   0.0000       0.308808         8.4031 
 115   0.0000       0.316038         8.5998 
 116   0.0000       0.352316         9.5870 
 117   0.0000       0.359345         9.7783 
 118   0.0000       0.361981         9.8500 
 119   0.0000       0.363331         9.8867 
 120   0.0000       0.373019        10.1504 
 121   0.0000       0.376269        10.2388 
 122   0.0000       0.377802        10.2805 
 123   0.0000       0.377923        10.2838 
 124   0.0000       0.378457        10.2984 
 125   0.0000       0.384595        10.4654 
 126   0.0000       0.391007        10.6399 
 127   0.0000       0.396425        10.7873 
 128   0.0000       0.404056        10.9949 
 129   0.0000       0.407359        11.0848 
 130   0.0000       0.408573        11.1178 
 131   0.0000       0.414234        11.2719 
 132   0.0000       0.415368        11.3027 
 133   0.0000       0.417602        11.3635 
 134   0.0000       0.418555        11.3895 
 135   0.0000       0.431634        11.7454 
 136   0.0000       0.436079        11.8663 
 137   0.0000       0.442344        12.0368 
 138   0.0000       0.445792        12.1306 
 139   0.0000       0.449434        12.2297 
 140   0.0000       0.452257        12.3065 
 141   0.0000       0.456964        12.4346 
 142   0.0000       0.459537        12.5046 
 143   0.0000       0.463973        12.6254 
 144   0.0000       0.465013        12.6537 
 145   0.0000       0.474024        12.8989 
 146   0.0000       0.474937        12.9237 
 147   0.0000       0.476149        12.9567 
 148   0.0000       0.477835        13.0026 
 149   0.0000       0.479356        13.0439 
 150   0.0000       0.494346        13.4518 
 151   0.0000       0.495650        13.4873 
 152   0.0000       0.500199        13.6111 
 153   0.0000       0.507708        13.8154 
 154   0.0000       0.512012        13.9325 
 155   0.0000       0.521774        14.1982 
 156   0.0000       0.523709        14.2508 
 157   0.0000       0.533577        14.5194 
 158   0.0000       0.537708        14.6318 
 159   0.0000       0.542330        14.7576 
 160   0.0000       0.550509        14.9801 
 161   0.0000       0.556488        15.1428 
 162   0.0000       0.559673        15.2295 
 163   0.0000       0.575364        15.6565 
 164   0.0000       0.583299        15.8724 
 165   0.0000       0.583997        15.8914 
 166   0.0000       0.600248        16.3336 
 167   0.0000       0.603175        16.4132 
 168   0.0000       0.607656        16.5352 
 169   0.0000       0.619812        16.8659 
 170   0.0000       0.622228        16.9317 
 171   0.0000       0.629690        17.1347 
 172   0.0000       0.635824        17.3016 
 173   0.0000       0.643207        17.5026 
 174   0.0000       0.643702        17.5160 
 175   0.0000       0.649873        17.6839 
 176   0.0000       0.653544        17.7838 
 177   0.0000       0.660928        17.9848 
 178   0.0000       0.677034        18.4230 
 179   0.0000       0.678264        18.4565 
 180   0.0000       0.683367        18.5954 
 181   0.0000       0.696179        18.9440 
 182   0.0000       0.732068        19.9206 
 183   0.0000       0.735211        20.0061 
 184   0.0000       0.737689        20.0735 
 185   0.0000       0.746773        20.3207 
 186   0.0000       0.749285        20.3891 
 187   0.0000       0.753190        20.4953 
 188   0.0000       0.767110        20.8741 
 189   0.0000       0.770142        20.9566 
 190   0.0000       0.779395        21.2084 
 191   0.0000       0.803347        21.8602 
 192   0.0000       0.807521        21.9738 
 193   0.0000       0.809260        22.0211 
 194   0.0000       0.813338        22.1321 
 195   0.0000       0.827142        22.5077 
 196   0.0000       0.829379        22.5686 
 197   0.0000       0.834694        22.7132 
 198   0.0000       0.850083        23.1319 
 199   0.0000       0.856210        23.2986 
 200   0.0000       0.862826        23.4787 
 201   0.0000       0.864958        23.5367 
 202   0.0000       0.866704        23.5842 
 203   0.0000       0.880624        23.9630 
 204   0.0000       0.894149        24.3310 
 205   0.0000       0.901443        24.5295 
 206   0.0000       0.914958        24.8973 
 207   0.0000       0.918112        24.9831 
 208   0.0000       0.940583        25.5946 
 209   0.0000       0.941383        25.6163 
 210   0.0000       0.964258        26.2388 
 211   0.0000       0.971940        26.4478 
 212   0.0000       0.974808        26.5259 
 213   0.0000       0.984464        26.7886 
 214   0.0000       0.992308        27.0021 
 215   0.0000       0.998512        27.1709 
 216   0.0000       1.000818        27.2336 
 217   0.0000       1.002662        27.2838 
 218   0.0000       1.004338        27.3294 
 219   0.0000       1.013511        27.5790 
 220   0.0000       1.036463        28.2036 
 221   0.0000       1.050838        28.5948 
 222   0.0000       1.053230        28.6599 
 223   0.0000       1.058826        28.8121 
 224   0.0000       1.061507        28.8851 
 225   0.0000       1.068058        29.0633 
 226   0.0000       1.068083        29.0640 
 227   0.0000       1.088361        29.6158 
 228   0.0000       1.092156        29.7191 
 229   0.0000       1.095661        29.8145 
 230   0.0000       1.109180        30.1823 
 231   0.0000       1.117646        30.4127 
 232   0.0000       1.120050        30.4781 
 233   0.0000       1.126362        30.6499 
 234   0.0000       1.145109        31.1600 
 235   0.0000       1.145581        31.1728 
 236   0.0000       1.149386        31.2764 
 237   0.0000       1.149578        31.2816 
 238   0.0000       1.153318        31.3834 
 239   0.0000       1.161567        31.6078 
 240   0.0000       1.196464        32.5574 
 241   0.0000       1.203727        32.7551 
 242   0.0000       1.246050        33.9068 
 243   0.0000       1.253839        34.1187 
 244   0.0000       1.264604        34.4116 
 245   0.0000       1.276454        34.7341 
 246   0.0000       1.285498        34.9802 
 247   0.0000       1.297590        35.3092 
 248   0.0000       1.317424        35.8489 
 249   0.0000       1.342803        36.5395 
 250   0.0000       1.356082        36.9009 
 251   0.0000       1.366599        37.1871 
 252   0.0000       1.383129        37.6368 
 253   0.0000       1.391700        37.8701 
 254   0.0000       1.402912        38.1752 
 255   0.0000       1.426597        38.8197 
 256   0.0000       1.438254        39.1369 
 257   0.0000       1.444949        39.3191 
 258   0.0000       1.445654        39.3382 
 259   0.0000       1.448617        39.4189 
 260   0.0000       1.454497        39.5789 
 261   0.0000       1.455418        39.6039 
 262   0.0000       1.459340        39.7107 
 263   0.0000       1.471823        40.0503 
 264   0.0000       1.481326        40.3089 
 265   0.0000       1.484168        40.3863 
 266   0.0000       1.486443        40.4482 
 267   0.0000       1.494613        40.6705 
 268   0.0000       1.496252        40.7151 
 269   0.0000       1.500850        40.8402 
 270   0.0000       1.501660        40.8622 
 271   0.0000       1.523560        41.4582 
 272   0.0000       1.524953        41.4961 
 273   0.0000       1.542781        41.9812 
 274   0.0000       1.558709        42.4146 
 275   0.0000       1.570360        42.7317 
 276   0.0000       1.570561        42.7371 
 277   0.0000       1.576575        42.9008 
 278   0.0000       1.588015        43.2121 
 279   0.0000       1.596088        43.4318 
 280   0.0000       1.600165        43.5427 
 281   0.0000       1.610404        43.8213 
 282   0.0000       1.620005        44.0826 
 283   0.0000       1.626006        44.2459 
 284   0.0000       1.671736        45.4903 
 285   0.0000       1.675566        45.5945 
 286   0.0000       1.699409        46.2433 
 287   0.0000       1.705161        46.3998 
 288   0.0000       1.713693        46.6319 
 289   0.0000       1.713730        46.6330 
 290   0.0000       1.716123        46.6981 
 291   0.0000       1.721888        46.8550 
 292   0.0000       1.732841        47.1530 
 293   0.0000       1.736135        47.2426 
 294   0.0000       1.767684        48.1011 
 295   0.0000       1.774024        48.2736 
 296   0.0000       1.787263        48.6339 
 297   0.0000       1.791606        48.7521 
 298   0.0000       1.798649        48.9437 
 299   0.0000       1.801481        49.0208 
 300   0.0000       1.803860        49.0855 
 301   0.0000       1.831310        49.8325 
 302   0.0000       1.833146        49.8824 
 303   0.0000       1.835870        49.9566 
 304   0.0000       1.842932        50.1487 
 305   0.0000       1.843622        50.1675 
 306   0.0000       1.850418        50.3524 
 307   0.0000       1.851186        50.3733 
 308   0.0000       1.885178        51.2983 
 309   0.0000       1.888856        51.3984 
 310   0.0000       1.901772        51.7498 
 311   0.0000       1.901930        51.7541 
 312   0.0000       1.903944        51.8090 
 313   0.0000       1.909315        51.9551 
 314   0.0000       1.912232        52.0345 
 315   0.0000       1.940894        52.8144 
 316   0.0000       1.945619        52.9430 
 317   0.0000       1.952908        53.1413 
 318   0.0000       1.958556        53.2950 
 319   0.0000       1.967402        53.5357 
 320   0.0000       1.969551        53.5942 
 321   0.0000       1.991842        54.2008 
 322   0.0000       2.001815        54.4722 
 323   0.0000       2.004038        54.5327 
 324   0.0000       2.007321        54.6220 
 325   0.0000       2.013518        54.7906 
 326   0.0000       2.018279        54.9202 
 327   0.0000       2.027622        55.1744 
 328   0.0000       2.038855        55.4801 
 329   0.0000       2.063920        56.1621 
 330   0.0000       2.067467        56.2586 
 331   0.0000       2.078926        56.5705 
 332   0.0000       2.081883        56.6509 
 333   0.0000       2.088195        56.8227 
 334   0.0000       2.105172        57.2846 
 335   0.0000       2.129097        57.9357 
 336   0.0000       2.133757        58.0625 
 337   0.0000       2.145519        58.3826 
 338   0.0000       2.163228        58.8644 
 339   0.0000       2.165872        58.9364 
 340   0.0000       2.187594        59.5275 
 341   0.0000       2.190298        59.6010 
 342   0.0000       2.194251        59.7086 
 343   0.0000       2.262155        61.5564 
 344   0.0000       2.279089        62.0172 
 345   0.0000       2.281913        62.0940 
 346   0.0000       2.303320        62.6765 
 347   0.0000       2.316377        63.0318 
 348   0.0000       2.318076        63.0780 
 349   0.0000       2.323016        63.2125 
 350   0.0000       2.328481        63.3612 
 351   0.0000       2.364843        64.3506 
 352   0.0000       2.382700        64.8366 
 353   0.0000       2.383714        64.8642 
 354   0.0000       2.385836        64.9219 
 355   0.0000       2.411571        65.6222 
 356   0.0000       2.430175        66.1284 
 357   0.0000       2.450575        66.6835 
 358   0.0000       2.468722        67.1774 
 359   0.0000       2.481154        67.5156 
 360   0.0000       2.502789        68.1044 
 361   0.0000       2.506509        68.2056 
 362   0.0000       2.535347        68.9903 
 363   0.0000       2.543852        69.2217 
 364   0.0000       2.546841        69.3031 
 365   0.0000       2.547253        69.3143 
 366   0.0000       2.559090        69.6364 
 367   0.0000       2.561680        69.7069 
 368   0.0000       2.574718        70.0616 
 369   0.0000       2.582356        70.2695 
 370   0.0000       2.592407        70.5430 
 371   0.0000       2.608762        70.9880 
 372   0.0000       2.616967        71.2113 
 373   0.0000       2.618709        71.2587 
 374   0.0000       2.619344        71.2760 
 375   0.0000       2.632392        71.6310 
 376   0.0000       2.639910        71.8356 
 377   0.0000       2.645494        71.9876 
 378   0.0000       2.657756        72.3212 
 379   0.0000       2.660887        72.4064 
 380   0.0000       2.672391        72.7194 
 381   0.0000       2.674149        72.7673 
 382   0.0000       2.685872        73.0863 
 383   0.0000       2.687939        73.1425 
 384   0.0000       2.695606        73.3512 
 385   0.0000       2.705631        73.6240 
 386   0.0000       2.719857        74.0111 
 387   0.0000       2.742988        74.6405 
 388   0.0000       2.768672        75.3394 
 389   0.0000       2.776765        75.5596 
 390   0.0000       2.777606        75.5825 
[...]
     78       0.003925  -0.008340  -0.012052   0.008076  -0.000287  -0.000511
     79      -0.207910   0.265423   0.502788  -0.384461   0.003339   0.009936
     80       0.000007  -0.000008  -0.000016   0.000012  -0.000000  -0.000000
     81       0.012027   0.295926   0.439027  -0.303130   0.012606   0.021783
     82       0.011052   0.175059   0.258565  -0.178074   0.008022   0.013676
     83       0.000000   0.000008   0.000012  -0.000008   0.000000   0.000001
     84       0.765636   0.059986   0.072498  -0.048083   0.157788   0.222057
     85       0.477539   0.036218   0.043457  -0.028740   0.100813   0.141878
     86       0.000020   0.000002   0.000002  -0.000001   0.000004   0.000006
     87      -0.274116  -0.031908  -0.041910   0.035172   0.478375   0.671053
     88       0.147636   0.017091   0.022406  -0.018917  -0.264407  -0.370858
     89      -0.000017  -0.000002  -0.000002   0.000002   0.000029   0.000041
     90       0.000286   0.000227  -0.000338  -0.000235  -0.004903   0.003463
     91       0.060382   0.033587  -0.043656  -0.043759   0.767087  -0.546169
     92      -0.000002  -0.000001   0.000001   0.000001  -0.000023   0.000017
     93      -0.153304  -0.055725   0.066967   0.053565   0.230154  -0.164452
     94      -0.086675  -0.032611   0.039488   0.031677   0.126880  -0.090660
     95      -0.000004  -0.000002   0.000002   0.000001   0.000006  -0.000004
     96       0.003656  -0.278545   0.413292   0.344799   0.019661  -0.017121
     97       0.002927  -0.166184   0.247655   0.207133   0.010937  -0.009653
     98       0.000000  -0.000007   0.000011   0.000009   0.000001  -0.000000
     99       0.037145  -0.213186   0.408820   0.379686   0.005391  -0.007286
    100      -0.021299   0.124990  -0.235526  -0.217218  -0.003432   0.004412
    101       0.000002  -0.000013   0.000026   0.000024   0.000000  -0.000000


-----------
IR SPECTRUM
-----------

 Mode   freq       eps      Int      T**2         TX        TY        TZ
       cm**-1   L/(mol*cm) km/mol    a.u.
----------------------------------------------------------------------------
  6:     86.35   0.000099    0.50  0.000356  ( 0.000043  0.000013 -0.018881)
  7:     86.54   0.000002    0.01  0.000008  (-0.000059 -0.000016 -0.002805)
  8:    128.97   0.000932    4.71  0.002255  ( 0.000015  0.000001  0.047491)
  9:    165.53   0.000003    0.02  0.000006  (-0.000012 -0.000008  0.002435)
 10:    224.76   0.000000    0.00  0.000000  ( 0.000000 -0.000004  0.000005)
 11:    295.77   0.000003    0.01  0.000003  ( 0.000000  0.000006  0.001693)
 12:    296.40   0.000000    0.00  0.000000  ( 0.000012  0.000005 -0.000073)
 13:    302.23   0.000000    0.00  0.000000  (-0.000009 -0.000007  0.000047)
 14:    323.20   0.000269    1.36  0.000259  (-0.000002  0.000006  0.016103)
 15:    359.29   0.001960    9.90  0.001702  ( 0.035460  0.021094  0.000001)
 16:    367.86   0.000002    0.01  0.000002  ( 0.000794 -0.001219  0.000000)
 17:    389.48   0.001309    6.61  0.001049  ( 0.016530 -0.027846  0.000002)
 18:    393.61   0.000026    0.13  0.000021  (-0.003877 -0.002344 -0.000000)
 19:    423.91   0.000000    0.00  0.000000  (-0.000002  0.000009  0.000046)
 20:    443.38   0.012033   60.81  0.008469  ( 0.079122  0.047000  0.000002)
 21:    455.74   0.000063    0.32  0.000043  ( 0.000012 -0.000005  0.006560)
 22:    478.11   0.000050    0.25  0.000033  ( 0.002983 -0.004869  0.000000)
 23:    488.75   0.000000    0.00  0.000000  (-0.000012  0.000007  0.000034)
 24:    489.02   0.000116    0.59  0.000074  (-0.004404  0.007389 -0.000001)
 25:    501.44   0.000023    0.12  0.000014  (-0.001915  0.003256 -0.000000)
 26:    513.65   0.000298    1.51  0.000181  ( 0.011562  0.006887  0.000000)
 27:    539.88   0.000000    0.00  0.000000  (-0.000017 -0.000005  0.000005)
 28:    553.00   0.001324    6.69  0.000747  (-0.000015  0.000001  0.027329)
 29:    577.74   0.004495   22.71  0.002428  ( 0.000003 -0.000001 -0.049273)
 30:    579.60   0.001481    7.49  0.000798  ( 0.024289  0.014411  0.000009)
 31:    607.43   0.000000    0.00  0.000000  (-0.000005  0.000003 -0.000040)
 32:    654.81   0.000000    0.00  0.000000  ( 0.000008  0.000000  0.000015)
 33:    657.39   0.000279    1.41  0.000132  ( 0.009882  0.005895  0.000000)
 34:    675.81   0.000141    0.71  0.000065  ( 0.000021  0.000007 -0.008075)
 35:    685.24   0.000219    1.11  0.000100  (-0.005122  0.008584 -0.000001)
 36:    688.82   0.000012    0.06  0.000006  (-0.002047 -0.001194 -0.000000)
 37:    737.91   0.000000    0.00  0.000000  ( 0.000003 -0.000008 -0.000022)
 38:    747.80   0.001501    7.58  0.000626  (-0.021506 -0.012795 -0.000000)
 39:    773.01   0.000082    0.41  0.000033  (-0.000000  0.000006 -0.005753)
 40:    776.70   0.000622    3.14  0.000250  ( 0.008066 -0.013600  0.000001)
 41:    777.35   0.000000    0.00  0.000000  ( 0.000000  0.000001  0.000039)
 42:    794.20   0.000715    3.61  0.000281  ( 0.000008 -0.000011  0.016757)
 43:    811.85   0.000000    0.00  0.000000  ( 0.000002  0.000007 -0.000030)
 44:    825.42   0.000000    0.00  0.000000  ( 0.000312 -0.000045  0.000001)
 45:    825.98   0.000165    0.84  0.000063  ( 0.003999 -0.006821  0.000001)
 46:    836.63   0.001525    7.70  0.000569  ( 0.000018  0.000003  0.023847)
 47:    853.93   0.000000    0.00  0.000000  ( 0.000009 -0.000002 -0.000040)
 48:    869.40   0.024106  121.82  0.008653  ( 0.000020 -0.000006 -0.093019)
 49:    914.10   0.000126    0.63  0.000043  ( 0.005637  0.003334 -0.000000)
 50:    962.75   0.000000    0.00  0.000000  ( 0.000016  0.000004 -0.000005)
 51:    968.28   0.000024    0.12  0.000008  ( 0.000013 -0.000012 -0.002810)
 52:    973.90   0.000000    0.00  0.000000  (-0.000011 -0.000009  0.000027)
 53:    979.31   0.000011    0.06  0.000004  ( 0.000005  0.000007  0.001886)
 54:    983.45   0.000000    0.00  0.000000  (-0.000025 -0.000000 -0.000018)
 55:    994.90   0.000153    0.77  0.000048  ( 0.005958  0.003541 -0.000000)
 56:   1008.23   0.000006    0.03  0.000002  (-0.000709  0.001226 -0.000000)
 57:   1042.95   0.000205    1.04  0.000061  (-0.004009  0.006735 -0.000001)
 58:   1135.52   0.002169   10.96  0.000596  ( 0.020970  0.012500  0.000001)
 59:   1153.45   0.002033   10.27  0.000550  ( 0.011877 -0.020222  0.000001)
 60:   1171.82   0.000117    0.59  0.000031  ( 0.002859 -0.004803  0.000000)
 61:   1172.48   0.000090    0.45  0.000024  ( 0.004219  0.002459  0.000000)
 62:   1180.13   0.000199    1.00  0.000053  ( 0.006230  0.003703  0.000000)
 63:   1221.47   0.000102    0.52  0.000026  ( 0.002600 -0.004393  0.000000)
 64:   1223.65   0.000421    2.13  0.000107  (-0.005327  0.008890 -0.000000)
 65:   1237.72   0.000330    1.67  0.000083  ( 0.004642 -0.007856  0.000000)
 66:   1244.52   0.000013    0.07  0.000003  ( 0.000859 -0.001617  0.000000)
 67:   1245.91   0.000141    0.71  0.000035  (-0.005127 -0.003022 -0.000000)
 68:   1255.80   0.000009    0.04  0.000002  (-0.001289 -0.000735 -0.000000)
 69:   1293.84   0.001688    8.53  0.000407  ( 0.010372 -0.017309  0.000001)
 70:   1300.53   0.001266    6.40  0.000304  (-0.014953 -0.008956 -0.000000)
 71:   1346.96   0.000790    3.99  0.000183  ( 0.006971 -0.011590  0.000001)
 72:   1354.33   0.001545    7.81  0.000356  ( 0.016203  0.009668  0.000001)
 73:   1382.00   0.000001    0.01  0.000000  (-0.000447 -0.000240  0.000000)
 74:   1388.65   0.000463    2.34  0.000104  (-0.005192  0.008774 -0.000000)
 75:   1408.00   0.000088    0.45  0.000020  (-0.002256  0.003799 -0.000000)
 76:   1424.03   0.000785    3.97  0.000172  (-0.006711  0.011265 -0.000001)
 77:   1429.92   0.000243    1.23  0.000053  (-0.006251 -0.003739 -0.000000)
 78:   1457.96   0.000003    0.02  0.000001  ( 0.000735  0.000435  0.000000)
 79:   1463.87   0.000096    0.49  0.000021  (-0.003908 -0.002293 -0.000000)
 80:   1466.83   0.000626    3.17  0.000133  (-0.005906  0.009918 -0.000001)
 81:   1493.99   0.000114    0.58  0.000024  ( 0.002510 -0.004188  0.000000)
 82:   1527.29   0.001356    6.85  0.000277  ( 0.008515 -0.014301  0.000001)
 83:   1533.16   0.001416    7.16  0.000288  (-0.014595 -0.008671 -0.000000)
 84:   1552.52   0.000177    0.90  0.000036  ( 0.005111  0.003086  0.000000)
 85:   1568.03   0.002109   10.66  0.000420  ( 0.010470 -0.017608  0.000001)
 86:   1583.56   0.000725    3.66  0.000143  (-0.010269 -0.006117 -0.000000)
 87:   1640.12   0.002498   12.62  0.000475  (-0.018746 -0.011127 -0.000001)
 88:   1646.67   0.000924    4.67  0.000175  ( 0.006716 -0.011402  0.000001)
 89:   1656.41   0.000579    2.93  0.000109  (-0.005319  0.008990 -0.000001)
 90:   1658.99   0.002578   13.03  0.000485  ( 0.018966  0.011187  0.000001)
 91:   2070.06   0.000107    0.54  0.000016  (-0.002054  0.003455 -0.000000)
 92:   3157.42   0.000418    2.11  0.000041  ( 0.005689  0.002998  0.000000)
 93:   3158.88   0.000583    2.95  0.000058  (-0.003451  0.006762 -0.000000)
 94:   3159.94   0.000092    0.46  0.000009  ( 0.002752  0.001214  0.000000)
 95:   3166.60   0.001629    8.23  0.000161  ( 0.009934  0.007868  0.000000)
 96:   3166.77   0.000776    3.92  0.000076  (-0.008505 -0.002027 -0.000000)
 97:   3175.14   0.000986    4.98  0.000097  (-0.005593  0.008101 -0.000001)
 98:   3176.91   0.010806   54.61  0.001062  (-0.027079 -0.018117 -0.000001)
 99:   3178.06   0.008771   44.32  0.000861  (-0.016374  0.024354 -0.000001)
100:   3193.47   0.004327   21.87  0.000423  (-0.016387 -0.012423 -0.000000)
101:   3193.62   0.001951    9.86  0.000191  (-0.009748  0.009779 -0.000001)

* The epsilon (eps) is given for a Dirac delta lineshape.
** The dipole moment derivative (T) already includes vibrational overlap.

The first frequency considered to be a vibration is 6
The total number of vibrations considered is 96


--------------------------
THERMOCHEMISTRY AT 298.15K
--------------------------

Temperature         ... 298.15 K
Pressure            ... 1.00 atm
Total Mass          ... 298.34 AMU

Throughout the following assumptions are being made:
  (1) The electronic state is orbitally nondegenerate
  (2) There are no thermally accessible electronically excited states
  (3) Hindered rotations indicated by low frequency modes are not
      treated as such but are treated as vibrations and this may
      cause some error
  (4) All equations used are the standard statistical mechanics
      equations for an ideal gas
  (5) All vibrations are strictly harmonic

freq.      86.35  E(vib)   ...       0.48 
freq.      86.54  E(vib)   ...       0.48 
freq.     128.97  E(vib)   ...       0.43 
freq.     165.53  E(vib)   ...       0.39 
freq.     224.76  E(vib)   ...       0.33 
freq.     295.77  E(vib)   ...       0.27 
freq.     296.40  E(vib)   ...       0.27 
freq.     302.23  E(vib)   ...       0.26 
freq.     323.20  E(vib)   ...       0.25 
freq.     359.29  E(vib)   ...       0.22 
freq.     367.86  E(vib)   ...       0.21 
freq.     389.48  E(vib)   ...       0.20 
freq.     393.61  E(vib)   ...       0.20 
freq.     423.91  E(vib)   ...       0.18 
freq.     443.38  E(vib)   ...       0.17 
freq.     455.74  E(vib)   ...       0.16 
freq.     478.11  E(vib)   ...       0.15 
freq.     488.75  E(vib)   ...       0.15 
freq.     489.02  E(vib)   ...       0.15 
freq.     501.44  E(vib)   ...       0.14 
freq.     513.65  E(vib)   ...       0.13 
freq.     539.88  E(vib)   ...       0.12 
freq.     553.00  E(vib)   ...       0.12 
freq.     577.74  E(vib)   ...       0.11 
freq.     579.60  E(vib)   ...       0.11 
freq.     607.43  E(vib)   ...       0.10 
freq.     654.81  E(vib)   ...       0.08 
freq.     657.39  E(vib)   ...       0.08 
freq.     675.81  E(vib)   ...       0.08 
freq.     685.24  E(vib)   ...       0.07 
freq.     688.82  E(vib)   ...       0.07 
freq.     737.91  E(vib)   ...       0.06 
freq.     747.80  E(vib)   ...       0.06 
freq.     773.01  E(vib)   ...       0.05 
freq.     776.70  E(vib)   ...       0.05 
freq.     777.35  E(vib)   ...       0.05 
freq.     794.20  E(vib)   ...       0.05 
freq.     811.85  E(vib)   ...       0.05 
freq.     825.42  E(vib)   ...       0.04 
freq.     825.98  E(vib)   ...       0.04 
freq.     836.63  E(vib)   ...       0.04 
freq.     853.93  E(vib)   ...       0.04 
freq.     869.40  E(vib)   ...       0.04 
freq.     914.10  E(vib)   ...       0.03 
freq.     962.75  E(vib)   ...       0.03 
freq.     968.28  E(vib)   ...       0.03 
freq.     973.90  E(vib)   ...       0.03 
freq.     979.31  E(vib)   ...       0.03 
freq.     983.45  E(vib)   ...       0.02 
freq.     994.90  E(vib)   ...       0.02 
freq.    1008.23  E(vib)   ...       0.02 
freq.    1042.95  E(vib)   ...       0.02 
freq.    1135.52  E(vib)   ...       0.01 
freq.    1153.45  E(vib)   ...       0.01 
freq.    1171.82  E(vib)   ...       0.01 
freq.    1172.48  E(vib)   ...       0.01 
freq.    1180.13  E(vib)   ...       0.01 
freq.    1221.47  E(vib)   ...       0.01 
freq.    1223.65  E(vib)   ...       0.01 
freq.    1237.72  E(vib)   ...       0.01 
freq.    1244.52  E(vib)   ...       0.01 
freq.    1245.91  E(vib)   ...       0.01 
freq.    1255.80  E(vib)   ...       0.01 
freq.    1293.84  E(vib)   ...       0.01 
freq.    1300.53  E(vib)   ...       0.01 
freq.    1346.96  E(vib)   ...       0.01 
freq.    1354.33  E(vib)   ...       0.01 
freq.    1382.00  E(vib)   ...       0.01 
freq.    1388.65  E(vib)   ...       0.00 
freq.    1408.00  E(vib)   ...       0.00 
freq.    1424.03  E(vib)   ...       0.00 
freq.    1429.92  E(vib)   ...       0.00 
freq.    1457.96  E(vib)   ...       0.00 
freq.    1463.87  E(vib)   ...       0.00 
freq.    1466.83  E(vib)   ...       0.00 
freq.    1493.99  E(vib)   ...       0.00 
freq.    1527.29  E(vib)   ...       0.00 
freq.    1533.16  E(vib)   ...       0.00 
freq.    1552.52  E(vib)   ...       0.00 
freq.    1568.03  E(vib)   ...       0.00 
freq.    1583.56  E(vib)   ...       0.00 
freq.    1640.12  E(vib)   ...       0.00 
freq.    1646.67  E(vib)   ...       0.00 
freq.    1656.41  E(vib)   ...       0.00 
freq.    1658.99  E(vib)   ...       0.00 
freq.    2070.06  E(vib)   ...       0.00 
freq.    3157.42  E(vib)   ...       0.00 
freq.    3158.88  E(vib)   ...       0.00 
freq.    3159.94  E(vib)   ...       0.00 
freq.    3166.60  E(vib)   ...       0.00 
freq.    3166.77  E(vib)   ...       0.00 
freq.    3175.14  E(vib)   ...       0.00 
freq.    3176.91  E(vib)   ...       0.00 
freq.    3178.06  E(vib)   ...       0.00 
freq.    3193.47  E(vib)   ...       0.00 
freq.    3193.62  E(vib)   ...       0.00 

------------
INNER ENERGY
------------

The inner energy is: U= E(el) + E(ZPE) + E(vib) + E(rot) + E(trans)
    E(el)   - is the total energy from the electronic structure calculation
              = E(kin-el) + E(nuc-el) + E(el-el) + E(nuc-nuc)
    E(ZPE)  - the the zero temperature vibrational energy from the frequency calculation
    E(vib)  - the the finite temperature correction to E(ZPE) due to population
              of excited vibrational states
    E(rot)  - is the rotational thermal energy
    E(trans)- is the translational thermal energy

Summary of contributions to the inner energy U:
Electronic energy                ...   -920.29108830 Eh
Zero point energy                ...      0.25403561 Eh     159.41 kcal/mol
Thermal vibrational correction   ...      0.01140995 Eh       7.16 kcal/mol
Thermal rotational correction    ...      0.00141627 Eh       0.89 kcal/mol
Thermal translational correction ...      0.00141627 Eh       0.89 kcal/mol
-----------------------------------------------------------------------
Total thermal energy                   -920.02281018 Eh


Summary of corrections to the electronic energy:
(perhaps to be used in another calculation)
Total thermal correction                  0.01424250 Eh       8.94 kcal/mol
Non-thermal (ZPE) correction              0.25403561 Eh     159.41 kcal/mol
-----------------------------------------------------------------------
Total correction                          0.26827811 Eh     168.35 kcal/mol


--------
ENTHALPY
--------

The enthalpy is H = U + kB*T
                kB is Boltzmann's constant
Total free energy                 ...   -920.02281018 Eh 
Thermal Enthalpy correction       ...      0.00094421 Eh       0.59 kcal/mol
-----------------------------------------------------------------------
Total Enthalpy                    ...   -920.02186598 Eh


Note: Rotational entropy computed according to Herzberg 
Infrared and Raman Spectra, Chapter V,1, Van Nostrand Reinhold, 1945 
Point Group:  Cs, Symmetry Number:   1  
Rotational constants in cm-1:     0.011665     0.011070     0.005680 

Vibrational entropy computed according to the QRRHO of S. Grimme
Chem.Eur.J. 2012 18 9955


-------
ENTROPY
-------

The entropy contributions are T*S = T*(S(el)+S(vib)+S(rot)+S(trans))
     S(el)   - electronic entropy
     S(vib)  - vibrational entropy
     S(rot)  - rotational entropy
     S(trans)- translational entropy
The entropies will be listed as multiplied by the temperature to get
units of energy

Electronic entropy                ...      0.00000000 Eh      0.00 kcal/mol
Vibrational entropy               ...      0.01798475 Eh     11.29 kcal/mol
Rotational entropy                ...      0.01617934 Eh     10.15 kcal/mol
Translational entropy             ...      0.02041934 Eh     12.81 kcal/mol
-----------------------------------------------------------------------
Final entropy term                ...      0.05458342 Eh     34.25 kcal/mol

In case the symmetry of your molecule has not been determined correctly
or in case you have a reason to use a different symmetry number we print 
out the resulting rotational entropy values for sn=1,12 :
 --------------------------------------------------------
|  sn= 1 | S(rot)=       0.01617934 Eh     10.15 kcal/mol|
|  sn= 2 | S(rot)=       0.01552489 Eh      9.74 kcal/mol|
|  sn= 3 | S(rot)=       0.01514205 Eh      9.50 kcal/mol|
|  sn= 4 | S(rot)=       0.01487043 Eh      9.33 kcal/mol|
|  sn= 5 | S(rot)=       0.01465974 Eh      9.20 kcal/mol|
|  sn= 6 | S(rot)=       0.01448760 Eh      9.09 kcal/mol|
|  sn= 7 | S(rot)=       0.01434205 Eh      9.00 kcal/mol|
|  sn= 8 | S(rot)=       0.01421597 Eh      8.92 kcal/mol|
|  sn= 9 | S(rot)=       0.01410476 Eh      8.85 kcal/mol|
|  sn=10 | S(rot)=       0.01400528 Eh      8.79 kcal/mol|
|  sn=11 | S(rot)=       0.01391529 Eh      8.73 kcal/mol|
|  sn=12 | S(rot)=       0.01383314 Eh      8.68 kcal/mol|
 --------------------------------------------------------


-------------------
GIBBS FREE ENERGY
-------------------

The Gibbs free energy is G = H - T*S

Total enthalpy                    ...   -920.02186598 Eh 
Total entropy correction          ...     -0.05458342 Eh    -34.25 kcal/mol
-----------------------------------------------------------------------
Final Gibbs free energy         ...   -920.07644940 Eh

For completeness - the Gibbs free energy minus the electronic energy
G-E(el)                           ...      0.21463890 Eh    134.69 kcal/mol


Timings for individual modules:

Sum of individual times         ...     4202.882 sec (=  70.048 min)
GTO integral calculation        ...        5.332 sec (=   0.089 min)   0.1 %
SCF iterations                  ...     1099.911 sec (=  18.332 min)  26.2 %
SCF Gradient evaluation         ...      267.507 sec (=   4.458 min)   6.4 %
Geometry relaxation             ...        0.768 sec (=   0.013 min)   0.0 %
Analytical frequency calculation...     2829.364 sec (=  47.156 min)  67.3 %
                             ****ORCA TERMINATED NORMALLY****
TOTAL RUN TIME: 0 days 1 hours 10 minutes 6 seconds 420 msec
