
                                 *****************
                                 * O   R   C   A *
                                 *****************

                                            #,                                       
                                            ###                                      
                                            ####                                     
                                            #####                                    
                                            ######                                   
                                           ########,                                 
                                     ,,################,,,,,                         
                               ,,#################################,,                 
                          ,,##########################################,,             
                       ,#########################################, ''#####,          
                    ,#############################################,,   '####,        
                  ,##################################################,,,,####,       
                ,###########''''           ''''###############################       
              ,#####''   ,,,,##########,,,,          '''####'''          '####       
            ,##' ,,,,###########################,,,                        '##       
           ' ,,###''''                  '''############,,,                           
         ,,##''                                '''############,,,,        ,,,,,,###''
      ,#''                                            '''#######################'''  
     '                                                          ''''####''''         
             ,#######,   #######,   ,#######,      ##                                
            ,#'     '#,  ##    ##  ,#'     '#,    #''#        ######   ,####,        
            ##       ##  ##   ,#'  ##            #'  '#       #        #'  '#        
            ##       ##  #######   ##           ,######,      #####,   #    #        
            '#,     ,#'  ##    ##  '#,     ,#' ,#      #,         ##   #,  ,#        
             '#######'   ##     ##  '#######'  #'      '#     #####' # '####'        



                  #######################################################
                  #                        -***-                        #
                  #          Department of theory and spectroscopy      #
                  #    Directorship and core code : Frank Neese         #
                  #        Max Planck Institute fuer Kohlenforschung    #
                  #                Kaiser Wilhelm Platz 1               #
                  #                 D-45470 Muelheim/Ruhr               #
                  #                      Germany                        #
                  #                                                     #
                  #                  All rights reserved                #
                  #                        -***-                        #
                  #######################################################



                         Program Version 5.0.4 -  RELEASE  -

 With contributions from (in alphabetic order):
   Daniel Aravena         : Magnetic Suceptibility
   Michael Atanasov       : Ab Initio Ligand Field Theory (pilot matlab implementation)
   Alexander A. Auer      : GIAO ZORA, VPT2 properties, NMR spectrum
   Ute Becker             : Parallelization
   Giovanni Bistoni       : ED, misc. LED, open-shell LED, HFLD
   Martin Brehm           : Molecular dynamics
   Dmytro Bykov           : SCF Hessian
   Vijay G. Chilkuri      : MRCI spin determinant printing, contributions to CSF-ICE
   Dipayan Datta          : RHF DLPNO-CCSD density
   Achintya Kumar Dutta   : EOM-CC, STEOM-CC
   Dmitry Ganyushin       : Spin-Orbit,Spin-Spin,Magnetic field MRCI
   Miquel Garcia          : C-PCM and meta-GGA Hessian, CC/C-PCM, Gaussian charge scheme
   Yang Guo               : DLPNO-NEVPT2, F12-NEVPT2, CIM, IAO-localization
   Andreas Hansen         : Spin unrestricted coupled pair/coupled cluster methods
   Benjamin Helmich-Paris : MC-RPA, TRAH-SCF, COSX integrals
   Lee Huntington         : MR-EOM, pCC
   Robert Izsak           : Overlap fitted RIJCOSX, COSX-SCS-MP3, EOM
   Marcus Kettner         : VPT2
   Christian Kollmar      : KDIIS, OOCD, Brueckner-CCSD(T), CCSD density, CASPT2, CASPT2-K
   Simone Kossmann        : Meta GGA functionals, TD-DFT gradient, OOMP2, MP2 Hessian
   Martin Krupicka        : Initial AUTO-CI
   Lucas Lang             : DCDCAS
   Marvin Lechner         : AUTO-CI (C++ implementation), FIC-MRCC
   Dagmar Lenk            : GEPOL surface, SMD
   Dimitrios Liakos       : Extrapolation schemes; Compound Job, initial MDCI parallelization
   Dimitrios Manganas     : Further ROCIS development; embedding schemes
   Dimitrios Pantazis     : SARC Basis sets
   Anastasios Papadopoulos: AUTO-CI, single reference methods and gradients
   Taras Petrenko         : DFT Hessian,TD-DFT gradient, ASA, ECA, R-Raman, ABS, FL, XAS/XES, NRVS
   Peter Pinski           : DLPNO-MP2, DLPNO-MP2 Gradient
   Christoph Reimann      : Effective Core Potentials
   Marius Retegan         : Local ZFS, SOC
   Christoph Riplinger    : Optimizer, TS searches, QM/MM, DLPNO-CCSD(T), (RO)-DLPNO pert. Triples
   Tobias Risthaus        : Range-separated hybrids, TD-DFT gradient, RPA, STAB
   Michael Roemelt        : Original ROCIS implementation
   Masaaki Saitow         : Open-shell DLPNO-CCSD energy and density
   Barbara Sandhoefer     : DKH picture change effects
   Avijit Sen             : IP-ROCIS
   Kantharuban Sivalingam : CASSCF convergence, NEVPT2, FIC-MRCI
   Bernardo de Souza      : ESD, SOC TD-DFT
   Georgi Stoychev        : AutoAux, RI-MP2 NMR, DLPNO-MP2 response
   Willem Van den Heuvel  : Paramagnetic NMR
   Boris Wezisla          : Elementary symmetry handling
   Frank Wennmohs         : Technical directorship


 We gratefully acknowledge several colleagues who have allowed us to
 interface, adapt or use parts of their codes:
   Stefan Grimme, W. Hujo, H. Kruse, P. Pracht,  : VdW corrections, initial TS optimization,
                  C. Bannwarth, S. Ehlert          DFT functionals, gCP, sTDA/sTD-DF
   Ed Valeev, F. Pavosevic, A. Kumar             : LibInt (2-el integral package), F12 methods
   Garnet Chan, S. Sharma, J. Yang, R. Olivares  : DMRG
   Ulf Ekstrom                                   : XCFun DFT Library
   Mihaly Kallay                                 : mrcc  (arbitrary order and MRCC methods)
   Jiri Pittner, Ondrej Demel                    : Mk-CCSD
   Frank Weinhold                                : gennbo (NPA and NBO analysis)
   Christopher J. Cramer and Donald G. Truhlar   : smd solvation model
   Lars Goerigk                                  : TD-DFT with DH, B97 family of functionals
   V. Asgeirsson, H. Jonsson                     : NEB implementation
   FAccTs GmbH                                   : IRC, NEB, NEB-TS, DLPNO-Multilevel, CI-OPT
                                                   MM, QMMM, 2- and 3-layer-ONIOM, Crystal-QMMM,
                                                   LR-CPCM, SF, NACMEs, symmetry and pop. for TD-DFT,
                                                   nearIR, NL-DFT gradient (VV10), updates on ESD,
                                                   ML-optimized integration grids
   S Lehtola, MJT Oliveira, MAL Marques          : LibXC Library
   Liviu Ungur et al                             : ANISO software


 Your calculation uses the libint2 library for the computation of 2-el integrals
 For citations please refer to: http://libint.valeyev.net

 Your ORCA version has been built with support for libXC version: 5.1.0
 For citations please refer to: https://tddft.org/programs/libxc/

 This ORCA versions uses:
   CBLAS   interface :  Fast vector & matrix operations
   LAPACKE interface :  Fast linear algebra routines
   Shared memory     :  Shared parallel matrices


XCFun DFT library Copyright 2009-2010 Ulf Ekstrom and contributors.
See http://admol.org/xcfun for more information.
This is free software; see the source code for copying conditions.
There is ABSOLUTELY NO WARRANTY; not even for MERCHANTABILITY or FITNESS FOR A PARTICULAR PURPOSE.
For details see the documentation.
Scientific users of this library should cite U. Ekstrom, L. Visscher, R. Bast, A. J. Thorvaldsen and K. Ruud;
J.Chem.Theor.Comp. 2010, DOI: 10.1021/ct100117s
XCFun Version 0.99 

================================================================================

----- Orbital basis set information -----
Your calculation utilizes the basis: def2-TZVP
   F. Weigend and R. Ahlrichs, Phys. Chem. Chem. Phys. 7, 3297 (2005).

----- AuxJ basis set information -----
Your calculation utilizes the auxiliary basis: def2/J
   F. Weigend, Phys. Chem. Chem. Phys. 8, 1057 (2006).

================================================================================
                                        WARNINGS
                       Please study these warnings very carefully!
================================================================================


WARNING: Geometry Optimization
  ===> : Switching off AutoStart
         For restart on a previous wavefunction, please use MOREAD

WARNING: Minnesota functionals are quite sensitive to the integration grid.
         see SE Wheeler, KN Houk, JCTC 2010, 6, 395,
             N Mardirossian, M Head-Gordon, JCTC 2016, 12, 4303.
         DEFGRID3 seems to be a minimum grid for reliable results with these functionals!
  ===> : Please increase the integration grid!


INFO   : the flag for use of the SHARK integral package has been found!

================================================================================
                                       INPUT FILE
================================================================================
NAME = eight_three.inp
|  1> !M062X def2-tzvp PAL4 TIGHTOPT FREQ
|  2> 
|  3> %freq
|  4> Temp 298.15,10,20,50,100,6000,8000,10000
|  5> end
|  6> 
|  7> %geom
|  8> maxiter 5000
|  9> end
| 10> 
| 11> 
| 12> 
| 13> 
| 14> 
| 15> 
| 16> 
| 17> 
| 18> 
| 19> * xyz 0 1
| 20>   C   2.45791983499341     -2.80268931379768     -0.00000793519644
| 21>   C   1.28608761308438     -3.49706883370209     -0.00003643606214
| 22>   C   0.03470547919465     -2.82650100714450     -0.00011895547508
| 23>   C   -1.19909611030651     -3.52926406052669     -0.00014738304165
| 24>   C   -2.38727532547159     -2.86387815648029     -0.00022974228995
| 25>   C   -2.43307513493588     -1.44447575303296     -0.00027036473986
| 26>   C   -3.65942351028343     -0.73056692575933     -0.00034869983218
| 27>   C   -3.68143184744779      0.63183680863156     -0.00038756598292
| 28>   C   -2.47654311552349      1.38171086633990     -0.00035715694906
| 29>   C   -2.47435650264592      2.81046534061019     -0.00039831731937
| 30>   C   -1.28561443050281      3.43802142880253     -0.00036151343355
| 31>   C   -0.02057223287027      2.83388218261706     -0.00029010794623
| 32>   C   1.21086686736911      3.53893902602452     -0.00025402239824
| 33>   C   2.39489324957599      2.86551829309080     -0.00018393811888
| 34>   C   2.43517090494280      1.44582754720977     -0.00014049013964
| 35>   C   3.65975900430544      0.72697243056351     -0.00006992784603
| 36>   C   3.67546036802878     -0.63516446298208     -0.00002698908555
| 37>   C   2.46811813995863     -1.38295180399054     -0.00005240219282
| 38>   C   1.24061543792698     -0.69496199420878     -0.00012711748511
| 39>   C   1.22474219035332      0.72698621586077     -0.00017741356338
| 40>   C   -0.01566516709535      1.42103164152461     -0.00024506128700
| 41>   C   -1.24356348643455      0.69923344199718     -0.00028346088976
| 42>   C   -1.22400277498297     -0.72338676000015     -0.00023734960533
| 43>   C   0.01693487392421     -1.41913103104816     -0.00016297130775
| 44>   H   3.40501735040542     -3.32906588787472      0.00005627444163
| 45>   H   1.29296308352502     -4.58060438188898      0.00000142672494
| 46>   H   -3.32129405982821     -3.41317602901623     -0.00025227227744
| 47>   H   -4.58586789409211     -1.29266910376159     -0.00037146429946
| 48>   H   -4.62408845924854      1.16575491725399     -0.00044556872067
| 49>   H   -3.41518424261775      3.34878172120577     -0.00045725814046
| 50>   H   1.18854626437870      4.62103847897618     -0.00028959104089
| 51>   H   3.33130215861300      3.41052642430950     -0.00015763965944
| 52>   H   4.58800492413600      1.28586263822177     -0.00004835142171
| 53>   H   4.61660270482137     -1.17213723898180      0.00002811587814
| 54>   **                         ****END OF INPUT****
================================================================================

                       *****************************
                       * Geometry Optimization Run *
                       *****************************

Geometry optimization settings:
Update method            Update   .... BFGS
Choice of coordinates    CoordSys .... Z-matrix Internals
Initial Hessian          InHess   .... Almoef's Model

Convergence Tolerances:
Energy Change            TolE     ....  1.0000e-06 Eh
Max. Gradient            TolMAXG  ....  1.0000e-04 Eh/bohr
RMS Gradient             TolRMSG  ....  3.0000e-05 Eh/bohr
Max. Displacement        TolMAXD  ....  1.0000e-03 bohr
RMS Displacement         TolRMSD  ....  6.0000e-04 bohr
Strict Convergence                ....  False
------------------------------------------------------------------------------
                        ORCA OPTIMIZATION COORDINATE SETUP
------------------------------------------------------------------------------

The optimization will be done in new redundant internal coordinates
Making redundant internal coordinates   ...  (new redundants) done
Evaluating the initial hessian          ...  (Almloef) done
Evaluating the coordinates              ...  done
Calculating the B-matrix                .... done
Calculating the G-matrix                .... done
Diagonalizing the G-matrix              .... done
The first mode is                       ....  124
The number of degrees of freedom        ....   96

    -----------------------------------------------------------------
                    Redundant Internal Coordinates


    -----------------------------------------------------------------
         Definition                    Initial Value    Approx d2E/dq
    -----------------------------------------------------------------
      1. B(C   1,C   0)                  1.3621         0.692196   
      2. B(C   2,C   1)                  1.4197         0.560163   
      3. B(C   3,C   2)                  1.4199         0.559784   
      4. B(C   4,C   3)                  1.3618         0.692986   
      5. B(C   5,C   4)                  1.4201         0.559307   
      6. B(C   6,C   5)                  1.4190         0.561631   
      7. B(C   7,C   6)                  1.3626         0.691008   
      8. B(C   8,C   7)                  1.4192         0.561288   
      9. B(C   9,C   8)                  1.4288         0.541883   
     10. B(C  10,C   9)                  1.3442         0.739220   
     11. B(C  11,C  10)                  1.4019         0.598077   
     12. B(C  12,C  11)                  1.4190         0.561667   
     13. B(C  13,C  12)                  1.3621         0.692140   
     14. B(C  14,C  13)                  1.4203         0.559059   
     15. B(C  15,C  14)                  1.4200         0.559620   
     16. B(C  16,C  15)                  1.3622         0.691907   
     17. B(C  17,C  16)                  1.4202         0.559263   
     18. B(C  17,C   0)                  1.4198         0.560062   
     19. B(C  18,C  17)                  1.4072         0.586630   
     20. B(C  19,C  18)                  1.4220         0.555426   
     21. B(C  19,C  14)                  1.4078         0.585271   
     22. B(C  20,C  19)                  1.4214         0.556776   
     23. B(C  20,C  11)                  1.4129         0.574471   
     24. B(C  21,C  20)                  1.4243         0.550758   
     25. B(C  21,C   8)                  1.4093         0.582117   
     26. B(C  22,C  21)                  1.4228         0.553963   
     27. B(C  22,C   5)                  1.4078         0.585305   
     28. B(C  23,C  22)                  1.4227         0.554138   
     29. B(C  23,C  18)                  1.4219         0.555694   
     30. B(C  23,C   2)                  1.4075         0.585932   
     31. B(H  24,C   0)                  1.0835         0.368744   
     32. B(H  25,C   1)                  1.0836         0.368724   
     33. B(H  26,C   4)                  1.0836         0.368710   
     34. B(H  27,C   6)                  1.0836         0.368624   
     35. B(H  28,C   7)                  1.0834         0.368991   
     36. B(H  29,C   9)                  1.0839         0.368197   
     37. B(H  30,C  12)                  1.0823         0.370391   
     38. B(H  31,C  13)                  1.0835         0.368850   
     39. B(H  32,C  15)                  1.0835         0.368786   
     40. B(H  33,C  16)                  1.0836         0.368729   
     41. A(C   1,C   0,H  24)          120.2864         0.361028   
     42. A(C   1,C   0,C  17)          121.0608         0.434729   
     43. A(C  17,C   0,H  24)          118.6528         0.348293   
     44. A(C   0,C   1,C   2)          121.1656         0.434743   
     45. A(C   0,C   1,H  25)          120.2857         0.361025   
     46. A(C   2,C   1,H  25)          118.5487         0.348301   
     47. A(C   1,C   2,C   3)          122.1494         0.418521   
     48. A(C   1,C   2,C  23)          118.9086         0.421943   
     49. A(C   3,C   2,C  23)          118.9421         0.421892   
     50. A(C   2,C   3,C   4)          121.0855         0.434779   
     51. A(C   3,C   4,H  26)          120.2911         0.361092   
     52. A(C   5,C   4,H  26)          118.6117         0.348209   
     53. A(C   3,C   4,C   5)          121.0971         0.434712   
     54. A(C   4,C   5,C   6)          122.0536         0.418653   
     55. A(C   6,C   5,C  22)          118.9827         0.422060   
     56. A(C   4,C   5,C  22)          118.9637         0.421748   
     57. A(C   7,C   6,H  27)          120.3210         0.360902   
     58. A(C   5,C   6,H  27)          118.5480         0.348439   
     59. A(C   5,C   6,C   7)          121.1310         0.434813   
     60. A(C   6,C   7,C   8)          120.9710         0.434765   
     61. A(C   8,C   7,H  28)          118.5764         0.348461   
     62. A(C   6,C   7,H  28)          120.4526         0.360963   
     63. A(C   7,C   8,C   9)          121.9842         0.416254   
     64. A(C   9,C   8,C  21)          118.8777         0.418964   
     65. A(C   7,C   8,C  21)          119.1382         0.421603   
     66. A(C   8,C   9,H  29)          119.6893         0.346278   
     67. A(C  10,C   9,H  29)          122.3927         0.365012   
     68. A(C   8,C   9,C  10)          117.9180         0.437299   
     69. A(C   9,C  10,C  11)          126.6422         0.445165   
     70. A(C  12,C  11,C  20)          119.5942         0.420659   
     71. A(C  10,C  11,C  20)          115.7265         0.425408   
     72. A(C  10,C  11,C  12)          124.6793         0.423696   
     73. A(C  11,C  12,H  30)          118.6115         0.348723   
     74. A(C  11,C  12,C  13)          120.5776         0.434946   
     75. A(C  13,C  12,H  30)          120.8109         0.361297   
     76. A(C  12,C  13,H  31)          120.1705         0.361040   
     77. A(C  12,C  13,C  14)          121.2544         0.434582   
     78. A(C  14,C  13,H  31)          118.5751         0.348205   
     79. A(C  13,C  14,C  15)          122.0388         0.418352   
     80. A(C  15,C  14,C  19)          118.8814         0.421785   
     81. A(C  13,C  14,C  19)          119.0799         0.421710   
     82. A(C  14,C  15,C  16)          121.0741         0.434634   
     83. A(C  16,C  15,H  32)          120.3914         0.361009   
     84. A(C  14,C  15,H  32)          118.5345         0.348254   
     85. A(C  17,C  16,H  33)          118.5202         0.348208   
     86. A(C  15,C  16,C  17)          121.1123         0.434585   
     87. A(C  15,C  16,H  33)          120.3675         0.361000   
     88. A(C  16,C  17,C  18)          118.9576         0.421912   
     89. A(C   0,C  17,C  18)          118.8582         0.422020   
     90. A(C   0,C  17,C  16)          122.1842         0.418438   
     91. A(C  17,C  18,C  19)          119.9093         0.421394   
     92. A(C  19,C  18,C  23)          119.9773         0.417343   
     93. A(C  17,C  18,C  23)          120.1134         0.421430   
     94. A(C  18,C  19,C  20)          119.8679         0.417487   
     95. A(C  14,C  19,C  20)          120.0667         0.421402   
     96. A(C  14,C  19,C  18)          120.0654         0.421219   
     97. A(C  11,C  20,C  19)          119.4273         0.420004   
     98. A(C  19,C  20,C  21)          120.3233         0.416860   
     99. A(C  11,C  20,C  21)          120.2494         0.419190   
    100. A(C  20,C  21,C  22)          119.6606         0.416485   
    101. A(C   8,C  21,C  22)          119.7531         0.420615   
    102. A(C   8,C  21,C  20)          120.5863         0.420180   
    103. A(C  21,C  22,C  23)          120.0654         0.416938   
    104. A(C   5,C  22,C  23)          119.9106         0.421049   
    105. A(C   5,C  22,C  21)          120.0240         0.421025   
    106. A(C  18,C  23,C  22)          120.1055         0.417170   
    107. A(C   2,C  23,C  22)          120.0010         0.421129   
    108. A(C   2,C  23,C  18)          119.8934         0.421340   
    109. D(H  25,C   1,C   0,H  24)     -0.0002         0.033683   
    110. D(H  25,C   1,C   0,C  17)   -179.9998         0.033683   
    111. D(C   2,C   1,C   0,C  17)      0.0003         0.033683   
    112. D(C   2,C   1,C   0,H  24)    179.9999         0.033683   
    113. D(C  23,C   2,C   1,H  25)    179.9997         0.021494   
    114. D(C   3,C   2,C   1,C   0)   -179.9999         0.021494   
    115. D(C  23,C   2,C   1,C   0)     -0.0004         0.021494   
    116. D(C   3,C   2,C   1,H  25)      0.0003         0.021494   
    117. D(C   4,C   3,C   2,C  23)      0.0007         0.019493   
    118. D(C   4,C   3,C   2,C   1)   -179.9999         0.019493   
    119. D(C   5,C   4,C   3,C   2)     -0.0009         0.030581   
    120. D(H  26,C   4,C   3,C   2)    179.9999         0.030581   
    121. D(C  22,C   5,C   4,C   3)      0.0006         0.021426   
    122. D(C  22,C   5,C   4,H  26)    179.9998         0.021426   
    123. D(C   6,C   5,C   4,H  26)     -0.0005         0.021426   
    124. D(C   6,C   5,C   4,C   3)   -179.9996         0.021426   
    125. D(H  27,C   6,C   5,C  22)   -179.9999         0.021611   
    126. D(C   7,C   6,C   5,C  22)     -0.0002         0.021611   
    127. D(H  27,C   6,C   5,C   4)      0.0004         0.021611   
    128. D(C   7,C   6,C   5,C   4)   -180.0000         0.021611   
    129. D(C   8,C   7,C   6,H  27)    179.9999         0.033558   
    130. D(H  28,C   7,C   6,H  27)     -0.0002         0.033558   
    131. D(C   8,C   7,C   6,C   5)      0.0003         0.033558   
    132. D(H  28,C   7,C   6,C   5)   -179.9999         0.033558   
    133. D(C  21,C   8,C   7,H  28)   -179.9999         0.021584   
    134. D(C  21,C   8,C   7,C   6)     -0.0001         0.021584   
    135. D(C   9,C   8,C   7,H  28)      0.0001         0.021584   
    136. D(C   9,C   8,C   7,C   6)    179.9999         0.021584   
    137. D(H  29,C   9,C   8,C   7)     -0.0002         0.020068   
    138. D(C  10,C   9,C   8,C  21)     -0.0001         0.020068   
    139. D(C  10,C   9,C   8,C   7)    179.9998         0.020068   
    140. D(H  29,C   9,C   8,C  21)    179.9999         0.020068   
    141. D(C  11,C  10,C   9,H  29)   -179.9998         0.035175   
    142. D(C  11,C  10,C   9,C   8)      0.0002         0.035175   
    143. D(C  20,C  11,C  10,C   9)     -0.0004         0.022365   
    144. D(C  12,C  11,C  10,C   9)    180.0000         0.022365   
    145. D(H  30,C  12,C  11,C  20)    180.0000         0.021614   
    146. D(H  30,C  12,C  11,C  10)     -0.0004         0.021614   
    147. D(C  13,C  12,C  11,C  20)      0.0004         0.021614   
    148. D(C  13,C  12,C  11,C  10)    180.0000         0.021614   
    149. D(H  31,C  13,C  12,H  30)      0.0003         0.033677   
    150. D(H  31,C  13,C  12,C  11)    179.9999         0.033677   
    151. D(C  14,C  13,C  12,H  30)   -179.9998         0.033677   
    152. D(C  14,C  13,C  12,C  11)     -0.0002         0.033677   
    153. D(C  19,C  14,C  13,H  31)   -179.9998         0.021406   
    154. D(C  19,C  14,C  13,C  12)      0.0003         0.021406   
    155. D(C  15,C  14,C  13,H  31)     -0.0003         0.021406   
    156. D(C  15,C  14,C  13,C  12)    179.9999         0.021406   
    157. D(H  32,C  15,C  14,C  19)    179.9996         0.021451   
    158. D(H  32,C  15,C  14,C  13)      0.0000         0.021451   
    159. D(C  16,C  15,C  14,C  19)     -0.0005         0.021451   
    160. D(C  16,C  15,C  14,C  13)    179.9999         0.021451   
    161. D(H  33,C  16,C  15,H  32)     -0.0001         0.033652   
    162. D(C  17,C  16,C  15,H  32)    179.9999         0.033652   
    163. D(C  17,C  16,C  15,C  14)      0.0001         0.033652   
    164. D(H  33,C  16,C  15,C  14)   -179.9999         0.033652   
    165. D(C   0,C  17,C  16,H  33)      0.0000         0.021423   
    166. D(C   0,C  17,C  16,C  15)   -180.0000         0.021423   
    167. D(C  18,C  17,C   0,H  24)   -179.9996         0.021486   
    168. D(C  18,C  17,C   0,C   1)     -0.0000         0.021486   
    169. D(C  16,C  17,C   0,H  24)      0.0005         0.021486   
    170. D(C  18,C  17,C  16,C  15)      0.0002         0.021423   
    171. D(C  16,C  17,C   0,C   1)   -179.9999         0.021486   
    172. D(C  18,C  17,C  16,H  33)   -179.9998         0.021423   
    173. D(C  23,C  18,C  17,C  16)    179.9996         0.023669   
    174. D(C  23,C  18,C  17,C   0)     -0.0003         0.023669   
    175. D(C  19,C  18,C  17,C  16)      0.0001         0.023669   
    176. D(C  19,C  18,C  17,C   0)   -179.9998         0.023669   
    177. D(C  20,C  19,C  18,C  23)      0.0009         0.021119   
    178. D(C  20,C  19,C  18,C  17)   -179.9996         0.021119   
    179. D(C  14,C  19,C  18,C  23)    179.9999         0.021119   
    180. D(C  14,C  19,C  18,C  17)     -0.0006         0.021119   
    181. D(C  20,C  19,C  14,C  15)    179.9999         0.023554   
    182. D(C  20,C  19,C  14,C  13)     -0.0006         0.023554   
    183. D(C  18,C  19,C  14,C  15)      0.0008         0.023554   
    184. D(C  18,C  19,C  14,C  13)   -179.9996         0.023554   
    185. D(C  21,C  20,C  19,C  18)     -0.0010         0.021225   
    186. D(C  21,C  20,C  19,C  14)    180.0000         0.021225   
    187. D(C  11,C  20,C  19,C  18)    179.9998         0.021225   
    188. D(C  11,C  20,C  19,C  14)      0.0007         0.021225   
    189. D(C  21,C  20,C  11,C  12)   -179.9999         0.022654   
    190. D(C  21,C  20,C  11,C  10)      0.0005         0.022654   
    191. D(C  19,C  20,C  11,C  12)     -0.0006         0.022654   
    192. D(C  19,C  20,C  11,C  10)    179.9997         0.022654   
    193. D(C  22,C  21,C  20,C  19)      0.0008         0.020753   
    194. D(C  22,C  21,C  20,C  11)   -180.0000         0.020753   
    195. D(C   8,C  21,C  20,C  19)   -179.9997         0.020753   
    196. D(C   8,C  21,C  20,C  11)     -0.0004         0.020753   
    197. D(C  22,C  21,C   8,C   9)    179.9998         0.023289   
    198. D(C  22,C  21,C   8,C   7)     -0.0002         0.023289   
    199. D(C  20,C  21,C   8,C   9)      0.0003         0.023289   
    200. D(C  20,C  21,C   8,C   7)   -179.9997         0.023289   
    201. D(C  23,C  22,C  21,C  20)     -0.0004         0.021004   
    202. D(C  23,C  22,C  21,C   8)    180.0000         0.021004   
    203. D(C   5,C  22,C  21,C  20)    179.9998         0.021004   
    204. D(C   5,C  22,C  21,C   8)      0.0002         0.021004   
    205. D(C  23,C  22,C   5,C   6)   -179.9998         0.023557   
    206. D(C  23,C  22,C   5,C   4)     -0.0001         0.023557   
    207. D(C  21,C  22,C   5,C   6)     -0.0000         0.023557   
    208. D(C  21,C  22,C   5,C   4)    179.9997         0.023557   
    209. D(C  18,C  23,C  22,C  21)      0.0003         0.021017   
    210. D(C   2,C  23,C  22,C  21)   -179.9999         0.021017   
    211. D(C   2,C  23,C  22,C   5)     -0.0002         0.021017   
    212. D(C  22,C  23,C  18,C  19)     -0.0005         0.021140   
    213. D(C  22,C  23,C  18,C  17)    179.9999         0.021140   
    214. D(C   2,C  23,C  18,C  19)    179.9997         0.021140   
    215. D(C   2,C  23,C  18,C  17)      0.0002         0.021140   
    216. D(C  22,C  23,C   2,C   3)     -0.0001         0.023610   
    217. D(C  22,C  23,C   2,C   1)   -179.9996         0.023610   
    218. D(C  18,C  23,C  22,C   5)   -179.9999         0.021017   
    219. D(C  18,C  23,C   2,C   3)    179.9996         0.023610   
    220. D(C  18,C  23,C   2,C   1)      0.0001         0.023610   
    -----------------------------------------------------------------

Number of atoms                         .... 34
Number of degrees of freedom            .... 220

         *************************************************************
         *                GEOMETRY OPTIMIZATION CYCLE   1            *
         *************************************************************
---------------------------------
CARTESIAN COORDINATES (ANGSTROEM)
---------------------------------
  C      2.457920   -2.802689   -0.000008
  C      1.286088   -3.497069   -0.000036
  C      0.034705   -2.826501   -0.000119
  C     -1.199096   -3.529264   -0.000147
  C     -2.387275   -2.863878   -0.000230
  C     -2.433075   -1.444476   -0.000270
  C     -3.659424   -0.730567   -0.000349
  C     -3.681432    0.631837   -0.000388
  C     -2.476543    1.381711   -0.000357
  C     -2.474357    2.810465   -0.000398
  C     -1.285614    3.438021   -0.000362
  C     -0.020572    2.833882   -0.000290
  C      1.210867    3.538939   -0.000254
  C      2.394893    2.865518   -0.000184
  C      2.435171    1.445828   -0.000140
  C      3.659759    0.726972   -0.000070
  C      3.675460   -0.635164   -0.000027
  C      2.468118   -1.382952   -0.000052
  C      1.240615   -0.694962   -0.000127
  C      1.224742    0.726986   -0.000177
  C     -0.015665    1.421032   -0.000245
  C     -1.243563    0.699233   -0.000283
  C     -1.224003   -0.723387   -0.000237
  C      0.016935   -1.419131   -0.000163
  H      3.405017   -3.329066    0.000056
  H      1.292963   -4.580604    0.000001
  H     -3.321294   -3.413176   -0.000252
  H     -4.585868   -1.292669   -0.000371
  H     -4.624088    1.165755   -0.000446
  H     -3.415184    3.348782   -0.000457
  H      1.188546    4.621038   -0.000290
  H      3.331302    3.410526   -0.000158
  H      4.588005    1.285863   -0.000048
  H      4.616603   -1.172137    0.000028

----------------------------
CARTESIAN COORDINATES (A.U.)
----------------------------
  NO LB      ZA    FRAG     MASS         X           Y           Z
   0 C     6.0000    0    12.011    4.644795   -5.296315   -0.000015
   1 C     6.0000    0    12.011    2.430353   -6.608502   -0.000069
   2 C     6.0000    0    12.011    0.065584   -5.341313   -0.000225
   3 C     6.0000    0    12.011   -2.265963   -6.669343   -0.000279
   4 C     6.0000    0    12.011   -4.511297   -5.411945   -0.000434
   5 C     6.0000    0    12.011   -4.597846   -2.729664   -0.000511
   6 C     6.0000    0    12.011   -6.915308   -1.380571   -0.000659
   7 C     6.0000    0    12.011   -6.956898    1.193999   -0.000732
   8 C     6.0000    0    12.011   -4.679988    2.611055   -0.000675
   9 C     6.0000    0    12.011   -4.675856    5.311010   -0.000753
  10 C     6.0000    0    12.011   -2.429459    6.496919   -0.000683
  11 C     6.0000    0    12.011   -0.038876    5.355261   -0.000548
  12 C     6.0000    0    12.011    2.288207    6.687626   -0.000480
  13 C     6.0000    0    12.011    4.525692    5.415045   -0.000348
  14 C     6.0000    0    12.011    4.601806    2.732218   -0.000265
  15 C     6.0000    0    12.011    6.915942    1.373779   -0.000132
  16 C     6.0000    0    12.011    6.945614   -1.200287   -0.000051
  17 C     6.0000    0    12.011    4.664067   -2.613400   -0.000099
  18 C     6.0000    0    12.011    2.344423   -1.313288   -0.000240
  19 C     6.0000    0    12.011    2.314427    1.373805   -0.000335
  20 C     6.0000    0    12.011   -0.029603    2.685361   -0.000463
  21 C     6.0000    0    12.011   -2.349994    1.321360   -0.000536
  22 C     6.0000    0    12.011   -2.313030   -1.367003   -0.000449
  23 C     6.0000    0    12.011    0.032002   -2.681769   -0.000308
  24 H     1.0000    0     1.008    6.434550   -6.291023    0.000106
  25 H     1.0000    0     1.008    2.443346   -8.656088    0.000003
  26 H     1.0000    0     1.008   -6.276336   -6.449968   -0.000477
  27 H     1.0000    0     1.008   -8.666034   -2.442791   -0.000702
  28 H     1.0000    0     1.008   -8.738261    2.202958   -0.000842
  29 H     1.0000    0     1.008   -6.453763    6.328280   -0.000864
  30 H     1.0000    0     1.008    2.246027    8.732497   -0.000547
  31 H     1.0000    0     1.008    6.295249    6.444961   -0.000298
  32 H     1.0000    0     1.008    8.670073    2.429928   -0.000091
  33 H     1.0000    0     1.008    8.724115   -2.215018    0.000053

--------------------------------
INTERNAL COORDINATES (ANGSTROEM)
--------------------------------
 C      0   0   0     0.000000000000     0.00000000     0.00000000
 C      1   0   0     1.362113679096     0.00000000     0.00000000
 C      2   1   0     1.419724783837   121.16560922     0.00000000
 C      3   2   1     1.419909247897   122.14936829   180.00012514
 C      4   3   2     1.361803310114   121.08549338   180.00014219
 C      5   4   3     1.420141122251   121.09714964     0.00000000
 C      6   5   4     1.419012388076   122.05359964   180.00035250
 C      7   6   5     1.362581485232   121.13095823   180.00004575
 C      8   7   6     1.419178621480   120.97098694     0.00000000
 C      9   8   7     1.428756148094   121.98415257   179.99993018
 C     10   9   8     1.344222585462   117.91798224   179.99982824
 C     11  10   9     1.401897284280   126.64222024     0.00000000
 C     12  11  10     1.418995211879   124.67934702   179.99996824
 C     13  12  11     1.362135809022   120.57756794   179.99997748
 C     14  13  12     1.420261984758   121.25435076     0.00000000
 C     15  14  13     1.419988977707   122.03878309   179.99987718
 C     16  15  14     1.362227386094   121.07411591   179.99989307
 C      1   2   3     1.419774138430   121.06079764     0.00000000
 C     18   1   2     1.407157726568   118.85816447     0.00000000
 C     15  14  13     1.407789236399   119.07985977     0.00000000
 C     12  11  10     1.412859063314   115.72648181     0.00000000
 C      9   8   7     1.409260162609   119.13818147     0.00000000
 C      6   5   4     1.407773173691   118.96366889     0.00000000
 C      3   2   1     1.407482165417   118.90857994     0.00000000
 H      1   2   3     1.083543264277   120.28639352   179.99993510
 H      2   1   3     1.083557362447   120.28567582   179.99985180
 H      5   4   3     1.083567787178   120.29111832   179.99989480
 H      7   6   5     1.083631881832   118.54804936     0.00000000
 H      8   7   6     1.083360529949   120.45257468   180.00011038
 H     10   9   8     1.083947122969   119.68934415     0.00000000
 H     13  12  11     1.082329634012   118.61148842     0.00000000
 H     14  13  12     1.083464585813   120.17050164   179.99994437
 H     16  15  14     1.083512229910   118.53445959     0.00000000
 H     17  16  15     1.083553719621   120.36752368   180.00008314

---------------------------
INTERNAL COORDINATES (A.U.)
---------------------------
 C      0   0   0     0.000000000000     0.00000000     0.00000000
 C      1   0   0     2.574021816758     0.00000000     0.00000000
 C      2   1   0     2.682891026993   121.16560922     0.00000000
 C      3   2   1     2.683239613547   122.14936829   180.00012514
 C      4   3   2     2.573435304383   121.08549338   180.00014219
 C      5   4   3     2.683677792575   121.09714964     0.00000000
 C      6   5   4     2.681544794105   122.05359964   180.00035250
 C      7   6   5     2.574905842241   121.13095823   180.00004575
 C      8   7   6     2.681858929714   120.97098694     0.00000000
 C      9   8   7     2.699957832055   121.98415257   179.99993018
 C     10   9   8     2.540212549554   117.91798224   179.99982824
 C     11  10   9     2.649201935177   126.64222024     0.00000000
 C     12  11  10     2.681512335797   124.67934702   179.99996824
 C     13  12  11     2.574063636258   120.57756794   179.99997748
 C     14  13  12     2.683906189613   121.25435076     0.00000000
 C     15  14  13     2.683390281052   122.03878309   179.99987718
 C     16  15  14     2.574236691845   121.07411591   179.99989307
 C      1   2   3     2.682984293657   121.06079764     0.00000000
 C     18   1   2     2.659142730445   118.85816447     0.00000000
 C     15  14  13     2.660336111077   119.07985977     0.00000000
 C     12  11  10     2.669916695492   115.72648181     0.00000000
 C      9   8   7     2.663115758776   119.13818147     0.00000000
 C      6   5   4     2.660305756958   118.96366889     0.00000000
 C      3   2   1     2.659755831016   118.90857994     0.00000000
 H      1   2   3     2.047600023738   120.28639352   179.99993510
 H      2   1   3     2.047626665418   120.28567582   179.99985180
 H      5   4   3     2.047646365305   120.29111832   179.99989480
 H      7   6   5     2.047767486649   118.54804936     0.00000000
 H      8   7   6     2.047254705903   120.45257468   180.00011038
 H     10   9   8     2.048363206063   119.68934415     0.00000000
 H     13  12  11     2.045306594911   118.61148842     0.00000000
 H     14  13  12     2.047451342988   120.17050164   179.99994437
 H     16  15  14     2.047541377284   118.53445959     0.00000000
 H     17  16  15     2.047619781476   120.36752368   180.00008314

---------------------
BASIS SET INFORMATION
---------------------
There are 2 groups of distinct atoms

 Group   1 Type C   : 11s6p2d1f contracted to 5s3p2d1f pattern {62111/411/11/1}
 Group   2 Type H   : 5s1p contracted to 3s1p pattern {311/1}

Atom   0C    basis set group =>   1
Atom   1C    basis set group =>   1
Atom   2C    basis set group =>   1
Atom   3C    basis set group =>   1
Atom   4C    basis set group =>   1
Atom   5C    basis set group =>   1
Atom   6C    basis set group =>   1
Atom   7C    basis set group =>   1
Atom   8C    basis set group =>   1
Atom   9C    basis set group =>   1
Atom  10C    basis set group =>   1
Atom  11C    basis set group =>   1
Atom  12C    basis set group =>   1
Atom  13C    basis set group =>   1
Atom  14C    basis set group =>   1
Atom  15C    basis set group =>   1
Atom  16C    basis set group =>   1
Atom  17C    basis set group =>   1
Atom  18C    basis set group =>   1
Atom  19C    basis set group =>   1
Atom  20C    basis set group =>   1
Atom  21C    basis set group =>   1
Atom  22C    basis set group =>   1
Atom  23C    basis set group =>   1
Atom  24H    basis set group =>   2
Atom  25H    basis set group =>   2
Atom  26H    basis set group =>   2
Atom  27H    basis set group =>   2
Atom  28H    basis set group =>   2
Atom  29H    basis set group =>   2
Atom  30H    basis set group =>   2
Atom  31H    basis set group =>   2
Atom  32H    basis set group =>   2
Atom  33H    basis set group =>   2
---------------------------------
AUXILIARY/J BASIS SET INFORMATION
---------------------------------
There are 2 groups of distinct atoms

 Group   1 Type C   : 12s5p4d2f1g contracted to 6s4p3d1f1g pattern {711111/2111/211/2/1}
 Group   2 Type H   : 5s2p1d contracted to 3s1p1d pattern {311/2/1}

Atom   0C    basis set group =>   1
Atom   1C    basis set group =>   1
Atom   2C    basis set group =>   1
Atom   3C    basis set group =>   1
Atom   4C    basis set group =>   1
Atom   5C    basis set group =>   1
Atom   6C    basis set group =>   1
Atom   7C    basis set group =>   1
Atom   8C    basis set group =>   1
Atom   9C    basis set group =>   1
Atom  10C    basis set group =>   1
Atom  11C    basis set group =>   1
Atom  12C    basis set group =>   1
Atom  13C    basis set group =>   1
Atom  14C    basis set group =>   1
Atom  15C    basis set group =>   1
Atom  16C    basis set group =>   1
Atom  17C    basis set group =>   1
Atom  18C    basis set group =>   1
Atom  19C    basis set group =>   1
Atom  20C    basis set group =>   1
Atom  21C    basis set group =>   1
Atom  22C    basis set group =>   1
Atom  23C    basis set group =>   1
Atom  24H    basis set group =>   2
Atom  25H    basis set group =>   2
Atom  26H    basis set group =>   2
Atom  27H    basis set group =>   2
Atom  28H    basis set group =>   2
Atom  29H    basis set group =>   2
Atom  30H    basis set group =>   2
Atom  31H    basis set group =>   2
Atom  32H    basis set group =>   2
Atom  33H    basis set group =>   2


           ************************************************************
           *        Program running with 4 parallel MPI-processes     *
           *              working on a common directory               *
           ************************************************************
------------------------------------------------------------------------------
                           ORCA GTO INTEGRAL CALCULATION
                           -- RI-GTO INTEGRALS CHOSEN --
------------------------------------------------------------------------------
------------------------------------------------------------------------------
                   ___                                                        
                  /   \      - P O W E R E D   B Y -                         
                 /     \                                                     
                 |  |  |   _    _      __       _____    __    __             
                 |  |  |  | |  | |    /  \     |  _  \  |  |  /  |          
                  \  \/   | |  | |   /    \    | | | |  |  | /  /          
                 / \  \   | |__| |  /  /\  \   | |_| |  |  |/  /          
                |  |  |   |  __  | /  /__\  \  |    /   |      \           
                |  |  |   | |  | | |   __   |  |    \   |  |\   \          
                \     /   | |  | | |  |  |  |  | |\  \  |  | \   \       
                 \___/    |_|  |_| |__|  |__|  |_| \__\ |__|  \__/        
                                                                              
                      - O R C A' S   B I G   F R I E N D -                    
                                      &                                       
                       - I N T E G R A L  F E E D E R -                       
                                                                              
 v1 FN, 2020, v2 2021                                                         
------------------------------------------------------------------------------


Reading SHARK input file eight_three.SHARKINP.tmp ... ok
----------------------
SHARK INTEGRAL PACKAGE
----------------------

Number of atoms                             ...     34
Number of basis functions                   ...    804
Number of shells                            ...    304
Maximum angular momentum                    ...      3
Integral batch strategy                     ... SHARK/LIBINT Hybrid
RI-J (if used) integral strategy            ... SPLIT-RIJ (Revised 2003 algorithm where possible)
Printlevel                                  ...      1
Contraction scheme used                     ... SEGMENTED contraction
Coulomb Range Separation                    ... NOT USED
Exchange Range Separation                   ... NOT USED
Finite Nucleus Model                        ... NOT USED
Auxiliary Coulomb fitting basis             ... AVAILABLE
   # of basis functions in Aux-J            ...   1286
   # of shells in Aux-J                     ...    410
   Maximum angular momentum in Aux-J        ...      4
Auxiliary J/K fitting basis                 ... NOT available
Auxiliary Correlation fitting basis         ... NOT available
Auxiliary 'external' fitting basis          ... NOT available
Integral threshold                          ...     2.500000e-11
Primitive cut-off                           ...     2.500000e-12
Primitive pair pre-selection threshold      ...     2.500000e-12

Calculating pre-screening integrals         ... done (  0.1 sec) Dimension = 304
Organizing shell pair data                  ... done (  0.8 sec)
Shell pair information
Total number of shell pairs                 ...     46360
Shell pairs after pre-screening             ...     35735
Total number of primitive shell pairs       ...    146628
Primitive shell pairs kept                  ...     75583
          la=0 lb=0:   8081 shell pairs
          la=1 lb=0:   9817 shell pairs
          la=1 lb=1:   2940 shell pairs
          la=2 lb=0:   5413 shell pairs
          la=2 lb=1:   3293 shell pairs
          la=2 lb=2:    929 shell pairs
          la=3 lb=0:   2542 shell pairs
          la=3 lb=1:   1589 shell pairs
          la=3 lb=2:    894 shell pairs
          la=3 lb=3:    237 shell pairs

Calculating one electron integrals          ... done (  0.2 sec)
Calculating RI/J V-Matrix + Cholesky decomp.... done (  0.2 sec)
Calculating Nuclear repulsion               ... done (  0.0 sec) ENN=   1800.819954665948 Eh

SHARK setup successfully completed in   2.5 seconds

Maximum memory used throughout the entire GTOINT-calculation: 52.5 MB


           ************************************************************
           *        Program running with 4 parallel MPI-processes     *
           *              working on a common directory               *
           ************************************************************
-------------------------------------------------------------------------------
                                 ORCA SCF
-------------------------------------------------------------------------------

------------
SCF SETTINGS
------------
Hamiltonian:
 Density Functional     Method          .... DFT(GTOs)
 Exchange Functional    Exchange        .... M062X
 Correlation Functional Correlation     .... M062X
 Gradients option       PostSCFGGA      .... off
 Hybrid DFT is turned on
   Fraction HF Exchange ScalHFX         ....  0.540000
   Scaling of DF-GGA-X  ScalDFX         ....  0.460000
   Scaling of DF-GGA-C  ScalDFC         ....  1.000000
   Scaling of DF-LDA-C  ScalLDAC        ....  1.000000
   Perturbative correction              ....  0.000000
   Density functional embedding theory  .... OFF
 RI-approximation to the Coulomb term is turned on
   Number of AuxJ basis functions       .... 1286
   RIJ-COSX (HFX calculated with COS-X)).... on


General Settings:
 Integral files         IntName         .... eight_three
 Hartree-Fock type      HFTyp           .... RHF
 Total Charge           Charge          ....    0
 Multiplicity           Mult            ....    1
 Number of Electrons    NEL             ....  154
 Basis Dimension        Dim             ....  804
 Nuclear Repulsion      ENuc            ....   1800.8199546659 Eh

Convergence Acceleration:
 DIIS                   CNVDIIS         .... on
   Start iteration      DIISMaxIt       ....    12
   Startup error        DIISStart       ....  0.200000
   # of expansion vecs  DIISMaxEq       ....     5
   Bias factor          DIISBfac        ....   1.050
   Max. coefficient     DIISMaxC        ....  10.000
 Trust-Rad. Augm. Hess. CNVTRAH         .... auto
   Auto Start mean grad. ratio tolernc. ....  1.125000
   Auto Start start iteration           ....    20
   Auto Start num. interpolation iter.  ....    10
   Max. Number of Micro iterations      ....    16
   Max. Number of Macro iterations      .... Maxiter - #DIIS iter
   Number of Davidson start vectors     ....     2
   Converg. threshold I  (grad. norm)   ....   1.000e-05
   Converg. threshold II (energy diff.) ....   1.000e-08
   Grad. Scal. Fac. for Micro threshold ....   0.100
   Minimum threshold for Micro iter.    ....   0.010
   NR start threshold (gradient norm)   ....   0.001
   Initial trust radius                 ....   0.400
   Minimum AH scaling param. (alpha)    ....   1.000
   Maximum AH scaling param. (alpha)    .... 1000.000
   Orbital update algorithm             .... Taylor
   White noise on init. David. guess    .... on
   Maximum white noise                  ....   0.010
   Quad. conv. algorithm                .... NR
 SOSCF                  CNVSOSCF        .... on
   Start iteration      SOSCFMaxIt      ....   150
   Startup grad/error   SOSCFStart      ....  0.003300
 Level Shifting         CNVShift        .... on
   Level shift para.    LevelShift      ....    0.2500
   Turn off err/grad.   ShiftErr        ....    0.0010
 Zerner damping         CNVZerner       .... off
 Static damping         CNVDamp         .... on
   Fraction old density DampFac         ....    0.7000
   Max. Damping (<1)    DampMax         ....    0.9800
   Min. Damping (>=0)   DampMin         ....    0.0000
   Turn off err/grad.   DampErr         ....    0.1000
 Fernandez-Rico         CNVRico         .... off

SCF Procedure:
 Maximum # iterations   MaxIter         ....   125
 SCF integral mode      SCFMode         .... Direct
   Integral package                     .... SHARK and LIBINT hybrid scheme
 Reset frequency        DirectResetFreq ....    20
 Integral Threshold     Thresh          ....  2.500e-11 Eh
 Primitive CutOff       TCut            ....  2.500e-12 Eh

Convergence Tolerance:
 Convergence Check Mode ConvCheckMode   .... Total+1el-Energy
 Convergence forced     ConvForced      .... 0
 Energy Change          TolE            ....  1.000e-08 Eh
 1-El. energy change                    ....  1.000e-05 Eh
 Orbital Gradient       TolG            ....  1.000e-05
 Orbital Rotation angle TolX            ....  1.000e-05
 DIIS Error             TolErr          ....  5.000e-07


Diagonalization of the overlap matrix:
Smallest eigenvalue                        ... 6.249e-07
Time for diagonalization                   ...    0.315 sec
Threshold for overlap eigenvalues          ... 1.000e-08
Number of eigenvalues below threshold      ... 0
Time for construction of square roots      ...    0.104 sec
Total time needed                          ...    0.423 sec

Time for model grid setup =    0.549 sec

------------------------------
INITIAL GUESS: MODEL POTENTIAL
------------------------------
Loading Hartree-Fock densities                     ... done
Calculating cut-offs                               ... done
Initializing the effective Hamiltonian             ... done
Setting up the integral package (SHARK)            ... done
Starting the Coulomb interaction                   ... done (   1.1 sec)
Reading the grid                                   ... done
Mapping shells                                     ... done
Starting the XC term evaluation                    ... done (   1.0 sec)
  promolecular density results
     # of electrons  =    153.982913047
     EX              =   -125.796088428
     EC              =     -5.219381264
     EX+EC           =   -131.015469691
Transforming the Hamiltonian                       ... done (   0.1 sec)
Diagonalizing the Hamiltonian                      ... done (   0.1 sec)
Back transforming the eigenvectors                 ... done (   0.0 sec)
Now organizing SCF variables                       ... done
                      ------------------
                      INITIAL GUESS DONE (   2.8 sec)
                      ------------------
-------------------
DFT GRID GENERATION
-------------------

General Integration Accuracy     IntAcc      ... 4.388
Radial Grid Type                 RadialGrid  ... OptM3 with GC (2021)
Angular Grid (max. ang.)         AngularGrid ... 4 (Lebedev-302)
Angular grid pruning method      GridPruning ... 4 (adaptive)
Weight generation scheme         WeightScheme... Becke
Basis function cutoff            BFCut       ... 1.0000e-11
Integration weight cutoff        WCut        ... 1.0000e-14
Angular grids for H and He will be reduced by one unit
Partially contracted basis set               ... off
Rotationally invariant grid construction     ... off

Total number of grid points                  ...   174245
Total number of batches                      ...     2738
Average number of points per batch           ...       63
Average number of grid points per atom       ...     5125
Time for grid setup =    1.593 sec

--------------------
COSX GRID GENERATION
--------------------

GRIDX 1
-------
General Integration Accuracy     IntAcc      ... 3.816
Radial Grid Type                 RadialGrid  ... OptM3 with GC (2021)
Angular Grid (max. ang.)         AngularGrid ... 1 (Lebedev-50)
Angular grid pruning method      GridPruning ... 4 (adaptive)
Weight generation scheme         WeightScheme... Becke
Basis function cutoff            BFCut       ... 1.0000e-11
Integration weight cutoff        WCut        ... 1.0000e-14
Angular grids for H and He will be reduced by one unit
Partially contracted basis set               ... on
Rotationally invariant grid construction     ... off

Total number of grid points                  ...    22183
Total number of batches                      ...      360
Average number of points per batch           ...       61
Average number of grid points per atom       ...      652
UseSFitting                                  ... on

GRIDX 2
-------
General Integration Accuracy     IntAcc      ... 4.020
Radial Grid Type                 RadialGrid  ... OptM3 with GC (2021)
Angular Grid (max. ang.)         AngularGrid ... 2 (Lebedev-110)
Angular grid pruning method      GridPruning ... 4 (adaptive)
Weight generation scheme         WeightScheme... Becke
Basis function cutoff            BFCut       ... 1.0000e-11
Integration weight cutoff        WCut        ... 1.0000e-14
Angular grids for H and He will be reduced by one unit
Partially contracted basis set               ... on
Rotationally invariant grid construction     ... off

Total number of grid points                  ...    49046
Total number of batches                      ...      784
Average number of points per batch           ...       62
Average number of grid points per atom       ...     1443
UseSFitting                                  ... on

GRIDX 3
-------
General Integration Accuracy     IntAcc      ... 4.338
Radial Grid Type                 RadialGrid  ... OptM3 with GC (2021)
Angular Grid (max. ang.)         AngularGrid ... 3 (Lebedev-194)
Angular grid pruning method      GridPruning ... 4 (adaptive)
Weight generation scheme         WeightScheme... Becke
Basis function cutoff            BFCut       ... 1.0000e-11
Integration weight cutoff        WCut        ... 1.0000e-14
Angular grids for H and He will be reduced by one unit
Partially contracted basis set               ... on
Rotationally invariant grid construction     ... off

Total number of grid points                  ...   107960
Total number of batches                      ...     1706
Average number of points per batch           ...       63
Average number of grid points per atom       ...     3175
UseSFitting                                  ... on

Time for X-Grid setup             =    4.158 sec

--------------
SCF ITERATIONS
--------------
ITER       Energy         Delta-E        Max-DP      RMS-DP      [F,P]     Damp
               ***  Starting incremental Fock matrix formation  ***
  0   -919.6724041049   0.000000000000 0.13626085  0.00197538  0.1896293 0.7000
  1   -920.0300528247  -0.357648719852 0.12182280  0.00163042  0.0860067 0.7000
                               ***Turning on DIIS***
  2   -920.0627552819  -0.032702457220 0.09146516  0.00131985  0.1180303 0.7000
  3   -920.1813545689  -0.118599286969 0.22262485  0.00333676  0.0436773 0.0000
  4   -920.3331210730  -0.151766504125 0.02017926  0.00022248  0.1080258 0.7000
  5   -920.3454225713  -0.012301498238 0.08524628  0.00085140  0.0828477 0.0000
  6   -920.3630282576  -0.017605686298 0.02108209  0.00028802  0.0245330 0.0000
  7   -920.3644615500  -0.001433292446 0.01260450  0.00019273  0.0166948 0.0000
  8   -920.3651559721  -0.000694422044 0.01032466  0.00015396  0.0121551 0.0000
  9   -920.3656076235  -0.000451651438 0.00690068  0.00009748  0.0059202 0.0000
                      *** Initiating the SOSCF procedure ***
                           *** Shutting down DIIS ***
                      *** Re-Reading the Fockian *** 
                      *** Removing any level shift *** 
ITER      Energy       Delta-E        Grad      Rot      Max-DP    RMS-DP
 10   -920.36579320  -0.0001855778  0.001588  0.001588  0.005058  0.000068
               *** Restarting incremental Fock matrix formation ***
 11   -920.36545653   0.0003366755  0.001038  0.004804  0.098445  0.001535
 12   -920.36548146  -0.0000249344  0.001960  0.037753  0.786400  0.008458
 13   -920.36488154   0.0005999178  0.010726  0.028176  0.700174  0.007316
 14   -920.36550173  -0.0006201829  0.000405  0.003312  0.146821  0.002098
 15   -920.36549653   0.0000051972  0.000456  0.002906  0.061572  0.000990
 16   -920.36551382  -0.0000172896  0.000038  0.000422  0.004103  0.000057
 17   -920.36551375   0.0000000627  0.000051  0.000089  0.004922  0.000070
 18   -920.36551408  -0.0000003201  0.000009  0.000071  0.001463  0.000020
 19   -920.36551411  -0.0000000318  0.000010  0.000042  0.000182  0.000002
                  ***Gradient check signals convergence***
              ***Rediagonalizing the Fockian in SOSCF/NRSCF***

               *****************************************************
               *                     SUCCESS                       *
               *           SCF CONVERGED AFTER  20 CYCLES          *
               *****************************************************

Old exchange energy                            =    -69.109169321 Eh
New exchange energy                            =    -69.108996909 Eh
Exchange energy change after final integration =      0.000172413 Eh
Total energy after final integration           =   -920.365341688 Eh
Final COS-X integration done in                =    78.389 sec

----------------
TOTAL SCF ENERGY
----------------

Total Energy       :         -920.36534169 Eh          -25044.41418 eV

Components:
Nuclear Repulsion  :         1800.81995467 Eh           49002.80222 eV
Electronic Energy  :        -2721.18529635 Eh          -74047.21640 eV
One Electron Energy:        -4819.57828205 Eh         -131147.39246 eV
Two Electron Energy:         2098.39298570 Eh           57100.17606 eV
Max COSX asymmetry :            0.00000557 Eh               0.00015 eV

Virial components:
Potential Energy   :        -1836.18560276 Eh          -49965.15043 eV
Kinetic Energy     :          915.82026107 Eh           24920.73625 eV
Virial Ratio       :            2.00496285


DFT components:
N(Alpha)           :       77.000167191820 electrons
N(Beta)            :       77.000167191820 electrons
N(Total)           :      154.000334383640 electrons
E(XC)              :      -64.620373949062 Eh       
DFET-embed. en.    :        0.000000000000 Eh       

---------------
SCF CONVERGENCE
---------------

  Last Energy change         ...    6.2578e-09  Tolerance :   1.0000e-08
  Last MAX-Density change    ...    1.6653e-15  Tolerance :   1.0000e-07
  Last RMS-Density change    ...    1.2714e-17  Tolerance :   5.0000e-09
  Last Orbital Gradient      ...    1.3333e-06  Tolerance :   1.0000e-05
  Last Orbital Rotation      ...    5.3321e-06  Tolerance :   1.0000e-05

             **** THE GBW FILE WAS UPDATED (eight_three.gbw) ****
             **** DENSITY eight_three.scfp WAS UPDATED ****
             **** ENERGY FILE WAS UPDATED (eight_three.en.tmp) ****
             **** THE GBW FILE WAS UPDATED (eight_three.gbw) ****
             **** DENSITY eight_three.scfp WAS UPDATED ****
----------------
ORBITAL ENERGIES
----------------

  NO   OCC          E(Eh)            E(eV) 
   0   2.0000     -10.591264      -288.2030 
   1   2.0000     -10.578895      -287.8664 
   2   2.0000     -10.576627      -287.8047 
   3   2.0000     -10.575313      -287.7689 
   4   2.0000     -10.569355      -287.6068 
   5   2.0000     -10.568961      -287.5961 
   6   2.0000     -10.568678      -287.5883 
   7   2.0000     -10.567090      -287.5451 
   8   2.0000     -10.566613      -287.5322 
   9   2.0000     -10.566263      -287.5226 
  10   2.0000     -10.566094      -287.5180 
  11   2.0000     -10.565341      -287.4975 
  12   2.0000     -10.564062      -287.4627 
  13   2.0000     -10.564048      -287.4624 
  14   2.0000     -10.562981      -287.4333 
  15   2.0000     -10.559592      -287.3411 
  16   2.0000     -10.559287      -287.3328 
  17   2.0000     -10.558013      -287.2981 
  18   2.0000     -10.557865      -287.2941 
  19   2.0000     -10.555678      -287.2346 
  20   2.0000     -10.554715      -287.2084 
  21   2.0000     -10.551273      -287.1147 
  22   2.0000     -10.551267      -287.1146 
  23   2.0000     -10.550016      -287.0805 
  24   2.0000      -1.031245       -28.0616 
  25   2.0000      -0.991789       -26.9880 
  26   2.0000      -0.989605       -26.9285 
  27   2.0000      -0.939424       -25.5630 
  28   2.0000      -0.937603       -25.5135 
  29   2.0000      -0.918457       -24.9925 
  30   2.0000      -0.884819       -24.0772 
  31   2.0000      -0.870572       -23.6895 
  32   2.0000      -0.852858       -23.2074 
  33   2.0000      -0.847824       -23.0705 
  34   2.0000      -0.818715       -22.2784 
  35   2.0000      -0.809460       -22.0265 
  36   2.0000      -0.735200       -20.0058 
  37   2.0000      -0.732406       -19.9298 
  38   2.0000      -0.729739       -19.8572 
  39   2.0000      -0.723067       -19.6757 
  40   2.0000      -0.705012       -19.1843 
  41   2.0000      -0.651485       -17.7278 
  42   2.0000      -0.641866       -17.4661 
  43   2.0000      -0.627840       -17.0844 
  44   2.0000      -0.618575       -16.8323 
  45   2.0000      -0.604301       -16.4439 
  46   2.0000      -0.600821       -16.3492 
  47   2.0000      -0.557360       -15.1665 
  48   2.0000      -0.544309       -14.8114 
  49   2.0000      -0.541349       -14.7309 
  50   2.0000      -0.537044       -14.6137 
  51   2.0000      -0.524961       -14.2849 
  52   2.0000      -0.521185       -14.1822 
  53   2.0000      -0.519937       -14.1482 
  54   2.0000      -0.503968       -13.7137 
  55   2.0000      -0.497779       -13.5453 
  56   2.0000      -0.496372       -13.5070 
  57   2.0000      -0.477230       -12.9861 
  58   2.0000      -0.472825       -12.8662 
  59   2.0000      -0.470716       -12.8088 
  60   2.0000      -0.470694       -12.8082 
  61   2.0000      -0.446827       -12.1588 
  62   2.0000      -0.444582       -12.0977 
  63   2.0000      -0.436316       -11.8728 
  64   2.0000      -0.430908       -11.7256 
  65   2.0000      -0.410406       -11.1677 
  66   2.0000      -0.408466       -11.1149 
  67   2.0000      -0.400670       -10.9028 
  68   2.0000      -0.390423       -10.6239 
  69   2.0000      -0.384218       -10.4551 
  70   2.0000      -0.340052        -9.2533 
  71   2.0000      -0.334392        -9.0993 
  72   2.0000      -0.318468        -8.6660 
  73   2.0000      -0.316236        -8.6052 
  74   2.0000      -0.261523        -7.1164 
  75   2.0000      -0.257412        -7.0045 
  76   2.0000      -0.210989        -5.7413 
  77   0.0000      -0.167106        -4.5472 
  78   0.0000      -0.046144        -1.2556 
  79   0.0000      -0.041122        -1.1190 
  80   0.0000      -0.003203        -0.0872 
  81   0.0000       0.000459         0.0125 
  82   0.0000       0.017377         0.4728 
  83   0.0000       0.049084         1.3356 
  84   0.0000       0.078393         2.1332 
  85   0.0000       0.081439         2.2161 
  86   0.0000       0.082602         2.2477 
  87   0.0000       0.090611         2.4657 
  88   0.0000       0.098847         2.6898 
  89   0.0000       0.107127         2.9151 
  90   0.0000       0.113500         3.0885 
  91   0.0000       0.118105         3.2138 
  92   0.0000       0.118729         3.2308 
  93   0.0000       0.120238         3.2719 
  94   0.0000       0.125664         3.4195 
  95   0.0000       0.134549         3.6613 
  96   0.0000       0.137825         3.7504 
  97   0.0000       0.140778         3.8308 
  98   0.0000       0.151784         4.1302 
  99   0.0000       0.165498         4.5034 
 100   0.0000       0.176590         4.8053 
 101   0.0000       0.177798         4.8381 
 102   0.0000       0.186846         5.0843 
 103   0.0000       0.188020         5.1163 
 104   0.0000       0.194564         5.2943 
 105   0.0000       0.200872         5.4660 
 106   0.0000       0.206209         5.6112 
 107   0.0000       0.209842         5.7101 
 108   0.0000       0.216073         5.8796 
 109   0.0000       0.224535         6.1099 
 110   0.0000       0.230821         6.2810 
 111   0.0000       0.234399         6.3783 
 112   0.0000       0.237806         6.4710 
 113   0.0000       0.244330         6.6486 
 114   0.0000       0.245617         6.6836 
 115   0.0000       0.260924         7.1001 
 116   0.0000       0.261858         7.1255 
 117   0.0000       0.264089         7.1862 
 118   0.0000       0.267716         7.2849 
 119   0.0000       0.273498         7.4423 
 120   0.0000       0.278610         7.5814 
 121   0.0000       0.281593         7.6625 
 122   0.0000       0.282381         7.6840 
 123   0.0000       0.288408         7.8480 
 124   0.0000       0.290676         7.9097 
 125   0.0000       0.293606         7.9894 
 126   0.0000       0.295885         8.0515 
 127   0.0000       0.302451         8.2301 
 128   0.0000       0.306536         8.3413 
 129   0.0000       0.308605         8.3976 
 130   0.0000       0.316654         8.6166 
 131   0.0000       0.316894         8.6231 
 132   0.0000       0.319226         8.6866 
 133   0.0000       0.321060         8.7365 
 134   0.0000       0.321726         8.7546 
 135   0.0000       0.329038         8.9536 
 136   0.0000       0.339705         9.2438 
 137   0.0000       0.345175         9.3927 
 138   0.0000       0.353401         9.6165 
 139   0.0000       0.354293         9.6408 
 140   0.0000       0.357596         9.7307 
 141   0.0000       0.358188         9.7468 
 142   0.0000       0.358668         9.7599 
 143   0.0000       0.371548        10.1103 
 144   0.0000       0.374702        10.1962 
 145   0.0000       0.380220        10.3463 
 146   0.0000       0.381258        10.3746 
 147   0.0000       0.381437        10.3794 
 148   0.0000       0.381795        10.3892 
 149   0.0000       0.386041        10.5047 
 150   0.0000       0.389800        10.6070 
 151   0.0000       0.392696        10.6858 
 152   0.0000       0.402241        10.9455 
 153   0.0000       0.405085        11.0229 
 154   0.0000       0.409815        11.1516 
 155   0.0000       0.414150        11.2696 
 156   0.0000       0.420064        11.4305 
 157   0.0000       0.425388        11.5754 
 158   0.0000       0.428435        11.6583 
 159   0.0000       0.431291        11.7360 
 160   0.0000       0.440896        11.9974 
 161   0.0000       0.442925        12.0526 
 162   0.0000       0.449445        12.2300 
 163   0.0000       0.452947        12.3253 
 164   0.0000       0.456909        12.4331 
 165   0.0000       0.460331        12.5262 
 166   0.0000       0.466151        12.6846 
 167   0.0000       0.472883        12.8678 
 168   0.0000       0.475272        12.9328 
 169   0.0000       0.475288        12.9333 
 170   0.0000       0.478097        13.0097 
 171   0.0000       0.495575        13.4853 
 172   0.0000       0.506494        13.7824 
 173   0.0000       0.510040        13.8789 
 174   0.0000       0.510365        13.8877 
 175   0.0000       0.511792        13.9266 
 176   0.0000       0.515187        14.0190 
 177   0.0000       0.520573        14.1655 
 178   0.0000       0.528899        14.3921 
 179   0.0000       0.532484        14.4896 
 180   0.0000       0.537733        14.6325 
 181   0.0000       0.545078        14.8323 
 182   0.0000       0.547275        14.8921 
 183   0.0000       0.549617        14.9558 
 184   0.0000       0.550445        14.9784 
 185   0.0000       0.553784        15.0692 
 186   0.0000       0.570587        15.5265 
 187   0.0000       0.571449        15.5499 
 188   0.0000       0.579298        15.7635 
 189   0.0000       0.581264        15.8170 
 190   0.0000       0.588233        16.0066 
 191   0.0000       0.602757        16.4019 
 192   0.0000       0.615426        16.7466 
 193   0.0000       0.630733        17.1631 
 194   0.0000       0.631799        17.1921 
 195   0.0000       0.633297        17.2329 
 196   0.0000       0.634689        17.2708 
 197   0.0000       0.638839        17.3837 
 198   0.0000       0.641426        17.4541 
 199   0.0000       0.646641        17.5960 
 200   0.0000       0.652907        17.7665 
 201   0.0000       0.653725        17.7888 
 202   0.0000       0.658799        17.9268 
 203   0.0000       0.663958        18.0672 
 204   0.0000       0.666353        18.1324 
 205   0.0000       0.666630        18.1399 
 206   0.0000       0.674132        18.3441 
 207   0.0000       0.682566        18.5736 
 208   0.0000       0.684096        18.6152 
 209   0.0000       0.689078        18.7508 
 210   0.0000       0.695746        18.9322 
 211   0.0000       0.698311        19.0020 
 212   0.0000       0.708125        19.2691 
 213   0.0000       0.723566        19.6892 
 214   0.0000       0.724690        19.7198 
 215   0.0000       0.728720        19.8295 
 216   0.0000       0.736825        20.0500 
 217   0.0000       0.747511        20.3408 
 218   0.0000       0.749655        20.3992 
 219   0.0000       0.763791        20.7838 
 220   0.0000       0.764605        20.8060 
 221   0.0000       0.765418        20.8281 
 222   0.0000       0.766183        20.8489 
 223   0.0000       0.776233        21.1224 
 224   0.0000       0.781267        21.2593 
 225   0.0000       0.783188        21.3116 
 226   0.0000       0.784875        21.3575 
 227   0.0000       0.786851        21.4113 
 228   0.0000       0.789435        21.4816 
 229   0.0000       0.792109        21.5544 
 230   0.0000       0.798602        21.7311 
 231   0.0000       0.804688        21.8967 
 232   0.0000       0.808062        21.9885 
 233   0.0000       0.815974        22.2038 
 234   0.0000       0.825891        22.4736 
 235   0.0000       0.829518        22.5723 
 236   0.0000       0.832812        22.6620 
 237   0.0000       0.836505        22.7625 
 238   0.0000       0.842789        22.9335 
 239   0.0000       0.855320        23.2744 
 240   0.0000       0.858702        23.3665 
 241   0.0000       0.866391        23.5757 
 242   0.0000       0.869614        23.6634 
 243   0.0000       0.869902        23.6712 
 244   0.0000       0.871833        23.7238 
 245   0.0000       0.885655        24.0999 
 246   0.0000       0.886706        24.1285 
 247   0.0000       0.895104        24.3570 
 248   0.0000       0.896933        24.4068 
 249   0.0000       0.901805        24.5394 
 250   0.0000       0.905703        24.6454 
 251   0.0000       0.912944        24.8425 
 252   0.0000       0.916396        24.9364 
 253   0.0000       0.920732        25.0544 
 254   0.0000       0.923192        25.1213 
 255   0.0000       0.936861        25.4933 
 256   0.0000       0.949312        25.8321 
 257   0.0000       0.951458        25.8905 
 258   0.0000       0.959229        26.1019 
 259   0.0000       0.973484        26.4899 
 260   0.0000       0.982267        26.7289 
 261   0.0000       0.995698        27.0943 
 262   0.0000       0.996788        27.1240 
 263   0.0000       1.016737        27.6668 
 264   0.0000       1.017647        27.6916 
 265   0.0000       1.023111        27.8403 
 266   0.0000       1.023291        27.8452 
 267   0.0000       1.050984        28.5987 
 268   0.0000       1.051748        28.6195 
 269   0.0000       1.054015        28.6812 
 270   0.0000       1.067765        29.0554 
 271   0.0000       1.075331        29.2613 
 272   0.0000       1.076654        29.2972 
 273   0.0000       1.087770        29.5997 
 274   0.0000       1.088564        29.6213 
 275   0.0000       1.096210        29.8294 
 276   0.0000       1.113172        30.2910 
 277   0.0000       1.116300        30.3761 
 278   0.0000       1.125169        30.6174 
 279   0.0000       1.125860        30.6362 
 280   0.0000       1.137511        30.9533 
 281   0.0000       1.137979        30.9660 
 282   0.0000       1.183766        32.2119 
 283   0.0000       1.194490        32.5037 
 284   0.0000       1.195802        32.5394 
 285   0.0000       1.204830        32.7851 
 286   0.0000       1.218077        33.1456 
 287   0.0000       1.227257        33.3954 
 288   0.0000       1.229301        33.4510 
 289   0.0000       1.235017        33.6065 
 290   0.0000       1.241018        33.7698 
 291   0.0000       1.242289        33.8044 
 292   0.0000       1.248815        33.9820 
 293   0.0000       1.251802        34.0633 
 294   0.0000       1.256561        34.1928 
 295   0.0000       1.270209        34.5641 
 296   0.0000       1.276071        34.7236 
 297   0.0000       1.278571        34.7917 
 298   0.0000       1.280885        34.8547 
 299   0.0000       1.286327        35.0027 
 300   0.0000       1.290782        35.1240 
 301   0.0000       1.295808        35.2607 
 302   0.0000       1.299367        35.3576 
 303   0.0000       1.309884        35.6438 
 304   0.0000       1.320104        35.9219 
 305   0.0000       1.325587        36.0711 
 306   0.0000       1.331007        36.2185 
 307   0.0000       1.340455        36.4756 
 308   0.0000       1.361613        37.0514 
 309   0.0000       1.363490        37.1025 
 310   0.0000       1.367492        37.2113 
 311   0.0000       1.368938        37.2507 
 312   0.0000       1.370500        37.2932 
 313   0.0000       1.380610        37.5683 
 314   0.0000       1.384847        37.6836 
 315   0.0000       1.394602        37.9490 
 316   0.0000       1.397482        38.0274 
 317   0.0000       1.406481        38.2723 
 318   0.0000       1.409751        38.3613 
 319   0.0000       1.410283        38.3758 
 320   0.0000       1.418306        38.5941 
 321   0.0000       1.427703        38.8498 
 322   0.0000       1.431254        38.9464 
 323   0.0000       1.452205        39.5165 
 324   0.0000       1.463231        39.8165 
 325   0.0000       1.477636        40.2085 
 326   0.0000       1.483567        40.3699 
 327   0.0000       1.491428        40.5838 
 328   0.0000       1.491887        40.5963 
 329   0.0000       1.492978        40.6260 
 330   0.0000       1.501865        40.8678 
 331   0.0000       1.512304        41.1519 
 332   0.0000       1.518446        41.3190 
 333   0.0000       1.522451        41.4280 
 334   0.0000       1.538540        41.8658 
 335   0.0000       1.544482        42.0275 
 336   0.0000       1.545453        42.0539 
 337   0.0000       1.546488        42.0821 
 338   0.0000       1.556979        42.3676 
 339   0.0000       1.559858        42.4459 
 340   0.0000       1.568662        42.6855 
 341   0.0000       1.571626        42.7661 
 342   0.0000       1.574221        42.8367 
 343   0.0000       1.591205        43.2989 
 344   0.0000       1.593778        43.3689 
 345   0.0000       1.602190        43.5978 
 346   0.0000       1.621436        44.1215 
 347   0.0000       1.624517        44.2053 
 348   0.0000       1.632497        44.4225 
 349   0.0000       1.637593        44.5612 
 350   0.0000       1.640228        44.6329 
 351   0.0000       1.646518        44.8040 
 352   0.0000       1.648625        44.8614 
 353   0.0000       1.651595        44.9422 
 354   0.0000       1.654355        45.0173 
 355   0.0000       1.656599        45.0783 
 356   0.0000       1.660950        45.1967 
 357   0.0000       1.661660        45.2161 
 358   0.0000       1.706942        46.4483 
 359   0.0000       1.713828        46.6356 
 360   0.0000       1.718350        46.7587 
 361   0.0000       1.724964        46.9386 
 362   0.0000       1.728431        47.0330 
 363   0.0000       1.729581        47.0643 
 364   0.0000       1.734732        47.2045 
 365   0.0000       1.737368        47.2762 
 366   0.0000       1.738555        47.3085 
 367   0.0000       1.749406        47.6038 
 368   0.0000       1.749914        47.6176 
 369   0.0000       1.753247        47.7083 
 370   0.0000       1.753303        47.7098 
 371   0.0000       1.771567        48.2068 
 372   0.0000       1.773343        48.2551 
 373   0.0000       1.777376        48.3648 
 374   0.0000       1.779583        48.4249 
 375   0.0000       1.787257        48.6337 
 376   0.0000       1.824946        49.6593 
 377   0.0000       1.829780        49.7908 
 378   0.0000       1.837074        49.9893 
 379   0.0000       1.857799        50.5533 
 380   0.0000       1.859861        50.6094 
 381   0.0000       1.883328        51.2480 
 382   0.0000       1.891808        51.4787 
 383   0.0000       1.902856        51.7794 
 384   0.0000       1.910635        51.9910 
 385   0.0000       1.918542        52.2062 
 386   0.0000       1.922663        52.3183 
 387   0.0000       1.936135        52.6849 
 388   0.0000       1.947676        52.9990 
 389   0.0000       1.966556        53.5127 
[...]


--------------------------
THERMOCHEMISTRY AT 8000.00K
--------------------------

Temperature         ... 8000.00 K
Pressure            ... 1.00 atm
Total Mass          ... 298.34 AMU

Throughout the following assumptions are being made:
  (1) The electronic state is orbitally nondegenerate
  (2) There are no thermally accessible electronically excited states
  (3) Hindered rotations indicated by low frequency modes are not
      treated as such but are treated as vibrations and this may
      cause some error
  (4) All equations used are the standard statistical mechanics
      equations for an ideal gas
  (5) All vibrations are strictly harmonic

freq.      86.34  E(vib)   ...      15.77 
freq.      91.04  E(vib)   ...      15.77 
freq.     126.04  E(vib)   ...      15.72 
freq.     211.60  E(vib)   ...      15.60 
freq.     272.31  E(vib)   ...      15.51 
freq.     295.85  E(vib)   ...      15.48 
freq.     296.93  E(vib)   ...      15.48 
freq.     320.05  E(vib)   ...      15.44 
freq.     322.91  E(vib)   ...      15.44 
freq.     370.58  E(vib)   ...      15.37 
freq.     372.98  E(vib)   ...      15.37 
freq.     384.40  E(vib)   ...      15.35 
freq.     386.10  E(vib)   ...      15.35 
freq.     415.39  E(vib)   ...      15.31 
freq.     468.14  E(vib)   ...      15.24 
freq.     471.55  E(vib)   ...      15.23 
freq.     481.28  E(vib)   ...      15.22 
freq.     494.89  E(vib)   ...      15.20 
freq.     505.54  E(vib)   ...      15.19 
freq.     507.50  E(vib)   ...      15.18 
freq.     553.78  E(vib)   ...      15.12 
freq.     586.78  E(vib)   ...      15.07 
freq.     596.03  E(vib)   ...      15.06 
freq.     625.39  E(vib)   ...      15.02 
freq.     653.55  E(vib)   ...      14.98 
freq.     657.53  E(vib)   ...      14.98 
freq.     668.90  E(vib)   ...      14.96 
freq.     685.17  E(vib)   ...      14.94 
freq.     685.41  E(vib)   ...      14.94 
freq.     716.73  E(vib)   ...      14.90 
freq.     757.88  E(vib)   ...      14.84 
freq.     778.24  E(vib)   ...      14.81 
freq.     792.87  E(vib)   ...      14.79 
freq.     806.41  E(vib)   ...      14.77 
freq.     821.33  E(vib)   ...      14.75 
freq.     833.96  E(vib)   ...      14.74 
freq.     837.46  E(vib)   ...      14.73 
freq.     848.67  E(vib)   ...      14.72 
freq.     866.16  E(vib)   ...      14.69 
freq.     873.30  E(vib)   ...      14.68 
freq.     876.96  E(vib)   ...      14.68 
freq.     883.11  E(vib)   ...      14.67 
freq.     953.33  E(vib)   ...      14.57 
freq.     981.45  E(vib)   ...      14.54 
freq.     985.37  E(vib)   ...      14.53 
freq.     994.78  E(vib)   ...      14.52 
freq.    1000.36  E(vib)   ...      14.51 
freq.    1002.96  E(vib)   ...      14.51 
freq.    1011.42  E(vib)   ...      14.50 
freq.    1052.89  E(vib)   ...      14.44 
freq.    1126.04  E(vib)   ...      14.34 
freq.    1132.34  E(vib)   ...      14.33 
freq.    1167.38  E(vib)   ...      14.29 
freq.    1170.53  E(vib)   ...      14.28 
freq.    1193.64  E(vib)   ...      14.25 
freq.    1199.92  E(vib)   ...      14.24 
freq.    1208.89  E(vib)   ...      14.23 
freq.    1232.77  E(vib)   ...      14.20 
freq.    1235.39  E(vib)   ...      14.20 
freq.    1248.31  E(vib)   ...      14.18 
freq.    1252.12  E(vib)   ...      14.18 
freq.    1298.24  E(vib)   ...      14.11 
freq.    1307.52  E(vib)   ...      14.10 
freq.    1338.72  E(vib)   ...      14.06 
freq.    1351.66  E(vib)   ...      14.04 
freq.    1378.10  E(vib)   ...      14.01 
freq.    1405.58  E(vib)   ...      13.97 
freq.    1409.28  E(vib)   ...      13.97 
freq.    1419.51  E(vib)   ...      13.95 
freq.    1424.64  E(vib)   ...      13.95 
freq.    1454.33  E(vib)   ...      13.91 
freq.    1461.79  E(vib)   ...      13.90 
freq.    1472.08  E(vib)   ...      13.89 
freq.    1487.89  E(vib)   ...      13.87 
freq.    1526.39  E(vib)   ...      13.82 
freq.    1540.47  E(vib)   ...      13.80 
freq.    1551.05  E(vib)   ...      13.78 
freq.    1562.56  E(vib)   ...      13.77 
freq.    1592.81  E(vib)   ...      13.73 
freq.    1641.62  E(vib)   ...      13.67 
freq.    1661.62  E(vib)   ...      13.64 
freq.    1674.30  E(vib)   ...      13.62 
freq.    1681.21  E(vib)   ...      13.62 
freq.    1688.32  E(vib)   ...      13.61 
freq.    3180.57  E(vib)   ...      11.78 
freq.    3181.12  E(vib)   ...      11.78 
freq.    3205.51  E(vib)   ...      11.75 
freq.    3210.40  E(vib)   ...      11.75 
freq.    3211.25  E(vib)   ...      11.75 
freq.    3211.56  E(vib)   ...      11.75 
freq.    3222.55  E(vib)   ...      11.73 
freq.    3226.77  E(vib)   ...      11.73 
freq.    3236.61  E(vib)   ...      11.72 
freq.    3236.75  E(vib)   ...      11.72 

------------
INNER ENERGY
------------

The inner energy is: U= E(el) + E(ZPE) + E(vib) + E(rot) + E(trans)
    E(el)   - is the total energy from the electronic structure calculation
              = E(kin-el) + E(nuc-el) + E(el-el) + E(nuc-nuc)
    E(ZPE)  - the the zero temperature vibrational energy from the frequency calculation
    E(vib)  - the the finite temperature correction to E(ZPE) due to population
              of excited vibrational states
    E(rot)  - is the rotational thermal energy
    E(trans)- is the translational thermal energy

Summary of contributions to the inner energy U:
Electronic energy                ...   -920.36975906 Eh
Zero point energy                ...      0.25262539 Eh     158.52 kcal/mol
Thermal vibrational correction   ...      2.14206006 Eh    1344.16 kcal/mol
Thermal rotational correction    ...      0.03800158 Eh      23.85 kcal/mol
Thermal translational correction ...      0.03800158 Eh      23.85 kcal/mol
-----------------------------------------------------------------------
Total thermal energy                   -917.89907045 Eh


Summary of corrections to the electronic energy:
(perhaps to be used in another calculation)
Total thermal correction                  2.21806322 Eh    1391.85 kcal/mol
Non-thermal (ZPE) correction              0.25262539 Eh     158.52 kcal/mol
-----------------------------------------------------------------------
Total correction                          2.47068861 Eh    1550.38 kcal/mol


--------
ENTHALPY
--------

The enthalpy is H = U + kB*T
                kB is Boltzmann's constant
Total free energy                 ...   -917.89907045 Eh 
Thermal Enthalpy correction       ...      0.02533514 Eh      15.90 kcal/mol
-----------------------------------------------------------------------
Total Enthalpy                    ...   -917.87373531 Eh


Note: Only C1 symmetry has been detected, increase convergence thresholds 
      if your molecule has a higher symmetry. Symmetry factor of 1.0 is   
      used for the rotational entropy correction. 
 

Note: Rotational entropy computed according to Herzberg 
Infrared and Raman Spectra, Chapter V,1, Van Nostrand Reinhold, 1945 
Point Group:  C1, Symmetry Number:   1  
Rotational constants in cm-1:     0.011618     0.011208     0.005705 

Vibrational entropy computed according to the QRRHO of S. Grimme
Chem.Eur.J. 2012 18 9955


-------
ENTROPY
-------

The entropy contributions are T*S = T*(S(el)+S(vib)+S(rot)+S(trans))
     S(el)   - electronic entropy
     S(vib)  - vibrational entropy
     S(rot)  - rotational entropy
     S(trans)- translational entropy
The entropies will be listed as multiplied by the temperature to get
units of energy

Electronic entropy                ...      0.00000000 Eh      0.00 kcal/mol
Vibrational entropy               ...      6.58184960 Eh   4130.16 kcal/mol
Rotational entropy                ...      0.55897566 Eh    350.76 kcal/mol
Translational entropy             ...      0.75624431 Eh    474.55 kcal/mol
-----------------------------------------------------------------------
Final entropy term                ...      7.89706958 Eh   4955.48 kcal/mol

In case the symmetry of your molecule has not been determined correctly
or in case you have a reason to use a different symmetry number we print 
out the resulting rotational entropy values for sn=1,12 :
 --------------------------------------------------------
|  sn= 1 | S(rot)=       0.55897566 Eh    350.76 kcal/mol|
|  sn= 2 | S(rot)=       0.54141521 Eh    339.74 kcal/mol|
|  sn= 3 | S(rot)=       0.53114300 Eh    333.30 kcal/mol|
|  sn= 4 | S(rot)=       0.52385475 Eh    328.72 kcal/mol|
|  sn= 5 | S(rot)=       0.51820154 Eh    325.18 kcal/mol|
|  sn= 6 | S(rot)=       0.51358254 Eh    322.28 kcal/mol|
|  sn= 7 | S(rot)=       0.50967722 Eh    319.83 kcal/mol|
|  sn= 8 | S(rot)=       0.50629429 Eh    317.70 kcal/mol|
|  sn= 9 | S(rot)=       0.50331033 Eh    315.83 kcal/mol|
|  sn=10 | S(rot)=       0.50064108 Eh    314.16 kcal/mol|
|  sn=11 | S(rot)=       0.49822646 Eh    312.64 kcal/mol|
|  sn=12 | S(rot)=       0.49602208 Eh    311.26 kcal/mol|
 --------------------------------------------------------


-------------------
GIBBS FREE ENERGY
-------------------

The Gibbs free energy is G = H - T*S

Total enthalpy                    ...   -917.87373531 Eh 
Total entropy correction          ...     -7.89706958 Eh  -4955.48 kcal/mol
-----------------------------------------------------------------------
Final Gibbs free energy         ...   -925.77080489 Eh

For completeness - the Gibbs free energy minus the electronic energy
G-E(el)                           ...     -5.40104583 Eh  -3389.20 kcal/mol


The first frequency considered to be a vibration is 8
The total number of vibrations considered is 94


--------------------------
THERMOCHEMISTRY AT 10000.00K
--------------------------

Temperature         ... 10000.00 K
Pressure            ... 1.00 atm
Total Mass          ... 298.34 AMU

Throughout the following assumptions are being made:
  (1) The electronic state is orbitally nondegenerate
  (2) There are no thermally accessible electronically excited states
  (3) Hindered rotations indicated by low frequency modes are not
      treated as such but are treated as vibrations and this may
      cause some error
  (4) All equations used are the standard statistical mechanics
      equations for an ideal gas
  (5) All vibrations are strictly harmonic

freq.      86.34  E(vib)   ...      19.75 
freq.      91.04  E(vib)   ...      19.74 
freq.     126.04  E(vib)   ...      19.69 
freq.     211.60  E(vib)   ...      19.57 
freq.     272.31  E(vib)   ...      19.49 
freq.     295.85  E(vib)   ...      19.45 
freq.     296.93  E(vib)   ...      19.45 
freq.     320.05  E(vib)   ...      19.42 
freq.     322.91  E(vib)   ...      19.41 
freq.     370.58  E(vib)   ...      19.35 
freq.     372.98  E(vib)   ...      19.34 
freq.     384.40  E(vib)   ...      19.33 
freq.     386.10  E(vib)   ...      19.33 
freq.     415.39  E(vib)   ...      19.28 
freq.     468.14  E(vib)   ...      19.21 
freq.     471.55  E(vib)   ...      19.21 
freq.     481.28  E(vib)   ...      19.19 
freq.     494.89  E(vib)   ...      19.17 
freq.     505.54  E(vib)   ...      19.16 
freq.     507.50  E(vib)   ...      19.16 
freq.     553.78  E(vib)   ...      19.09 
freq.     586.78  E(vib)   ...      19.05 
freq.     596.03  E(vib)   ...      19.03 
freq.     625.39  E(vib)   ...      18.99 
freq.     653.55  E(vib)   ...      18.95 
freq.     657.53  E(vib)   ...      18.95 
freq.     668.90  E(vib)   ...      18.93 
freq.     685.17  E(vib)   ...      18.91 
freq.     685.41  E(vib)   ...      18.91 
freq.     716.73  E(vib)   ...      18.87 
freq.     757.88  E(vib)   ...      18.81 
freq.     778.24  E(vib)   ...      18.78 
freq.     792.87  E(vib)   ...      18.76 
freq.     806.41  E(vib)   ...      18.74 
freq.     821.33  E(vib)   ...      18.72 
freq.     833.96  E(vib)   ...      18.70 
freq.     837.46  E(vib)   ...      18.70 
freq.     848.67  E(vib)   ...      18.68 
freq.     866.16  E(vib)   ...      18.66 
freq.     873.30  E(vib)   ...      18.65 
freq.     876.96  E(vib)   ...      18.65 
freq.     883.11  E(vib)   ...      18.64 
freq.     953.33  E(vib)   ...      18.54 
freq.     981.45  E(vib)   ...      18.50 
freq.     985.37  E(vib)   ...      18.50 
freq.     994.78  E(vib)   ...      18.48 
freq.    1000.36  E(vib)   ...      18.48 
freq.    1002.96  E(vib)   ...      18.47 
freq.    1011.42  E(vib)   ...      18.46 
freq.    1052.89  E(vib)   ...      18.41 
freq.    1126.04  E(vib)   ...      18.31 
freq.    1132.34  E(vib)   ...      18.30 
freq.    1167.38  E(vib)   ...      18.25 
freq.    1170.53  E(vib)   ...      18.25 
freq.    1193.64  E(vib)   ...      18.21 
freq.    1199.92  E(vib)   ...      18.21 
freq.    1208.89  E(vib)   ...      18.19 
freq.    1232.77  E(vib)   ...      18.16 
freq.    1235.39  E(vib)   ...      18.16 
freq.    1248.31  E(vib)   ...      18.14 
freq.    1252.12  E(vib)   ...      18.14 
freq.    1298.24  E(vib)   ...      18.07 
freq.    1307.52  E(vib)   ...      18.06 
freq.    1338.72  E(vib)   ...      18.02 
freq.    1351.66  E(vib)   ...      18.00 
freq.    1378.10  E(vib)   ...      17.97 
freq.    1405.58  E(vib)   ...      17.93 
freq.    1409.28  E(vib)   ...      17.93 
freq.    1419.51  E(vib)   ...      17.91 
freq.    1424.64  E(vib)   ...      17.91 
freq.    1454.33  E(vib)   ...      17.87 
freq.    1461.79  E(vib)   ...      17.86 
freq.    1472.08  E(vib)   ...      17.84 
freq.    1487.89  E(vib)   ...      17.82 
freq.    1526.39  E(vib)   ...      17.77 
freq.    1540.47  E(vib)   ...      17.75 
freq.    1551.05  E(vib)   ...      17.74 
freq.    1562.56  E(vib)   ...      17.72 
freq.    1592.81  E(vib)   ...      17.68 
freq.    1641.62  E(vib)   ...      17.62 
freq.    1661.62  E(vib)   ...      17.59 
freq.    1674.30  E(vib)   ...      17.57 
freq.    1681.21  E(vib)   ...      17.57 
freq.    1688.32  E(vib)   ...      17.56 
freq.    3180.57  E(vib)   ...      15.67 
freq.    3181.12  E(vib)   ...      15.67 
freq.    3205.51  E(vib)   ...      15.64 
freq.    3210.40  E(vib)   ...      15.64 
freq.    3211.25  E(vib)   ...      15.63 
freq.    3211.56  E(vib)   ...      15.63 
freq.    3222.55  E(vib)   ...      15.62 
freq.    3226.77  E(vib)   ...      15.62 
freq.    3236.61  E(vib)   ...      15.60 
freq.    3236.75  E(vib)   ...      15.60 

------------
INNER ENERGY
------------

The inner energy is: U= E(el) + E(ZPE) + E(vib) + E(rot) + E(trans)
    E(el)   - is the total energy from the electronic structure calculation
              = E(kin-el) + E(nuc-el) + E(el-el) + E(nuc-nuc)
    E(ZPE)  - the the zero temperature vibrational energy from the frequency calculation
    E(vib)  - the the finite temperature correction to E(ZPE) due to population
              of excited vibrational states
    E(rot)  - is the rotational thermal energy
    E(trans)- is the translational thermal energy

Summary of contributions to the inner energy U:
Electronic energy                ...   -920.36975906 Eh
Zero point energy                ...      0.25262539 Eh     158.52 kcal/mol
Thermal vibrational correction   ...      2.73481225 Eh    1716.12 kcal/mol
Thermal rotational correction    ...      0.04750198 Eh      29.81 kcal/mol
Thermal translational correction ...      0.04750198 Eh      29.81 kcal/mol
-----------------------------------------------------------------------
Total thermal energy                   -917.28731747 Eh


Summary of corrections to the electronic energy:
(perhaps to be used in another calculation)
Total thermal correction                  2.82981620 Eh    1775.73 kcal/mol
Non-thermal (ZPE) correction              0.25262539 Eh     158.52 kcal/mol
-----------------------------------------------------------------------
Total correction                          3.08244159 Eh    1934.26 kcal/mol


--------
ENTHALPY
--------

The enthalpy is H = U + kB*T
                kB is Boltzmann's constant
Total free energy                 ...   -917.28731747 Eh 
Thermal Enthalpy correction       ...      0.03166893 Eh      19.87 kcal/mol
-----------------------------------------------------------------------
Total Enthalpy                    ...   -917.25564854 Eh


Note: Only C1 symmetry has been detected, increase convergence thresholds 
      if your molecule has a higher symmetry. Symmetry factor of 1.0 is   
      used for the rotational entropy correction. 
 

Note: Rotational entropy computed according to Herzberg 
Infrared and Raman Spectra, Chapter V,1, Van Nostrand Reinhold, 1945 
Point Group:  C1, Symmetry Number:   1  
Rotational constants in cm-1:     0.011618     0.011208     0.005705 

Vibrational entropy computed according to the QRRHO of S. Grimme
Chem.Eur.J. 2012 18 9955


-------
ENTROPY
-------

The entropy contributions are T*S = T*(S(el)+S(vib)+S(rot)+S(trans))
     S(el)   - electronic entropy
     S(vib)  - vibrational entropy
     S(rot)  - rotational entropy
     S(trans)- translational entropy
The entropies will be listed as multiplied by the temperature to get
units of energy

Electronic entropy                ...      0.00000000 Eh      0.00 kcal/mol
Vibrational entropy               ...      8.88270147 Eh   5573.97 kcal/mol
Rotational entropy                ...      0.70931934 Eh    445.10 kcal/mol
Translational entropy             ...      0.96297166 Eh    604.27 kcal/mol
-----------------------------------------------------------------------
Final entropy term                ...     10.55499247 Eh   6623.34 kcal/mol

In case the symmetry of your molecule has not been determined correctly
or in case you have a reason to use a different symmetry number we print 
out the resulting rotational entropy values for sn=1,12 :
 --------------------------------------------------------
|  sn= 1 | S(rot)=       0.70931934 Eh    445.10 kcal/mol|
|  sn= 2 | S(rot)=       0.68736877 Eh    431.33 kcal/mol|
|  sn= 3 | S(rot)=       0.67452850 Eh    423.27 kcal/mol|
|  sn= 4 | S(rot)=       0.66541819 Eh    417.56 kcal/mol|
|  sn= 5 | S(rot)=       0.65835169 Eh    413.12 kcal/mol|
|  sn= 6 | S(rot)=       0.65257793 Eh    409.50 kcal/mol|
|  sn= 7 | S(rot)=       0.64769629 Eh    406.43 kcal/mol|
|  sn= 8 | S(rot)=       0.64346762 Eh    403.78 kcal/mol|
|  sn= 9 | S(rot)=       0.63973767 Eh    401.44 kcal/mol|
|  sn=10 | S(rot)=       0.63640111 Eh    399.35 kcal/mol|
|  sn=11 | S(rot)=       0.63338283 Eh    397.45 kcal/mol|
|  sn=12 | S(rot)=       0.63062736 Eh    395.72 kcal/mol|
 --------------------------------------------------------


-------------------
GIBBS FREE ENERGY
-------------------

The Gibbs free energy is G = H - T*S

Total enthalpy                    ...   -917.25564854 Eh 
Total entropy correction          ...    -10.55499247 Eh  -6623.34 kcal/mol
-----------------------------------------------------------------------
Final Gibbs free energy         ...   -927.81064101 Eh

For completeness - the Gibbs free energy minus the electronic energy
G-E(el)                           ...     -7.44088195 Eh  -4669.21 kcal/mol


Timings for individual modules:

Sum of individual times         ...    29651.212 sec (= 494.187 min)
GTO integral calculation        ...       28.699 sec (=   0.478 min)   0.1 %
SCF iterations                  ...     6136.930 sec (= 102.282 min)  20.7 %
SCF Gradient evaluation         ...     1562.308 sec (=  26.038 min)   5.3 %
Geometry relaxation             ...        2.454 sec (=   0.041 min)   0.0 %
Analytical frequency calculation...    21920.821 sec (= 365.347 min)  73.9 %
                             ****ORCA TERMINATED NORMALLY****
TOTAL RUN TIME: 0 days 8 hours 14 minutes 21 seconds 201 msec
