
                                 *****************
                                 * O   R   C   A *
                                 *****************

                                            #,                                       
                                            ###                                      
                                            ####                                     
                                            #####                                    
                                            ######                                   
                                           ########,                                 
                                     ,,################,,,,,                         
                               ,,#################################,,                 
                          ,,##########################################,,             
                       ,#########################################, ''#####,          
                    ,#############################################,,   '####,        
                  ,##################################################,,,,####,       
                ,###########''''           ''''###############################       
              ,#####''   ,,,,##########,,,,          '''####'''          '####       
            ,##' ,,,,###########################,,,                        '##       
           ' ,,###''''                  '''############,,,                           
         ,,##''                                '''############,,,,        ,,,,,,###''
      ,#''                                            '''#######################'''  
     '                                                          ''''####''''         
             ,#######,   #######,   ,#######,      ##                                
            ,#'     '#,  ##    ##  ,#'     '#,    #''#        ######   ,####,        
            ##       ##  ##   ,#'  ##            #'  '#       #        #'  '#        
            ##       ##  #######   ##           ,######,      #####,   #    #        
            '#,     ,#'  ##    ##  '#,     ,#' ,#      #,         ##   #,  ,#        
             '#######'   ##     ##  '#######'  #'      '#     #####' # '####'        



                  #######################################################
                  #                        -***-                        #
                  #          Department of theory and spectroscopy      #
                  #    Directorship and core code : Frank Neese         #
                  #        Max Planck Institute fuer Kohlenforschung    #
                  #                Kaiser Wilhelm Platz 1               #
                  #                 D-45470 Muelheim/Ruhr               #
                  #                      Germany                        #
                  #                                                     #
                  #                  All rights reserved                #
                  #                        -***-                        #
                  #######################################################



                         Program Version 5.0.4 -  RELEASE  -

 With contributions from (in alphabetic order):
   Daniel Aravena         : Magnetic Suceptibility
   Michael Atanasov       : Ab Initio Ligand Field Theory (pilot matlab implementation)
   Alexander A. Auer      : GIAO ZORA, VPT2 properties, NMR spectrum
   Ute Becker             : Parallelization
   Giovanni Bistoni       : ED, misc. LED, open-shell LED, HFLD
   Martin Brehm           : Molecular dynamics
   Dmytro Bykov           : SCF Hessian
   Vijay G. Chilkuri      : MRCI spin determinant printing, contributions to CSF-ICE
   Dipayan Datta          : RHF DLPNO-CCSD density
   Achintya Kumar Dutta   : EOM-CC, STEOM-CC
   Dmitry Ganyushin       : Spin-Orbit,Spin-Spin,Magnetic field MRCI
   Miquel Garcia          : C-PCM and meta-GGA Hessian, CC/C-PCM, Gaussian charge scheme
   Yang Guo               : DLPNO-NEVPT2, F12-NEVPT2, CIM, IAO-localization
   Andreas Hansen         : Spin unrestricted coupled pair/coupled cluster methods
   Benjamin Helmich-Paris : MC-RPA, TRAH-SCF, COSX integrals
   Lee Huntington         : MR-EOM, pCC
   Robert Izsak           : Overlap fitted RIJCOSX, COSX-SCS-MP3, EOM
   Marcus Kettner         : VPT2
   Christian Kollmar      : KDIIS, OOCD, Brueckner-CCSD(T), CCSD density, CASPT2, CASPT2-K
   Simone Kossmann        : Meta GGA functionals, TD-DFT gradient, OOMP2, MP2 Hessian
   Martin Krupicka        : Initial AUTO-CI
   Lucas Lang             : DCDCAS
   Marvin Lechner         : AUTO-CI (C++ implementation), FIC-MRCC
   Dagmar Lenk            : GEPOL surface, SMD
   Dimitrios Liakos       : Extrapolation schemes; Compound Job, initial MDCI parallelization
   Dimitrios Manganas     : Further ROCIS development; embedding schemes
   Dimitrios Pantazis     : SARC Basis sets
   Anastasios Papadopoulos: AUTO-CI, single reference methods and gradients
   Taras Petrenko         : DFT Hessian,TD-DFT gradient, ASA, ECA, R-Raman, ABS, FL, XAS/XES, NRVS
   Peter Pinski           : DLPNO-MP2, DLPNO-MP2 Gradient
   Christoph Reimann      : Effective Core Potentials
   Marius Retegan         : Local ZFS, SOC
   Christoph Riplinger    : Optimizer, TS searches, QM/MM, DLPNO-CCSD(T), (RO)-DLPNO pert. Triples
   Tobias Risthaus        : Range-separated hybrids, TD-DFT gradient, RPA, STAB
   Michael Roemelt        : Original ROCIS implementation
   Masaaki Saitow         : Open-shell DLPNO-CCSD energy and density
   Barbara Sandhoefer     : DKH picture change effects
   Avijit Sen             : IP-ROCIS
   Kantharuban Sivalingam : CASSCF convergence, NEVPT2, FIC-MRCI
   Bernardo de Souza      : ESD, SOC TD-DFT
   Georgi Stoychev        : AutoAux, RI-MP2 NMR, DLPNO-MP2 response
   Willem Van den Heuvel  : Paramagnetic NMR
   Boris Wezisla          : Elementary symmetry handling
   Frank Wennmohs         : Technical directorship


 We gratefully acknowledge several colleagues who have allowed us to
 interface, adapt or use parts of their codes:
   Stefan Grimme, W. Hujo, H. Kruse, P. Pracht,  : VdW corrections, initial TS optimization,
                  C. Bannwarth, S. Ehlert          DFT functionals, gCP, sTDA/sTD-DF
   Ed Valeev, F. Pavosevic, A. Kumar             : LibInt (2-el integral package), F12 methods
   Garnet Chan, S. Sharma, J. Yang, R. Olivares  : DMRG
   Ulf Ekstrom                                   : XCFun DFT Library
   Mihaly Kallay                                 : mrcc  (arbitrary order and MRCC methods)
   Jiri Pittner, Ondrej Demel                    : Mk-CCSD
   Frank Weinhold                                : gennbo (NPA and NBO analysis)
   Christopher J. Cramer and Donald G. Truhlar   : smd solvation model
   Lars Goerigk                                  : TD-DFT with DH, B97 family of functionals
   V. Asgeirsson, H. Jonsson                     : NEB implementation
   FAccTs GmbH                                   : IRC, NEB, NEB-TS, DLPNO-Multilevel, CI-OPT
                                                   MM, QMMM, 2- and 3-layer-ONIOM, Crystal-QMMM,
                                                   LR-CPCM, SF, NACMEs, symmetry and pop. for TD-DFT,
                                                   nearIR, NL-DFT gradient (VV10), updates on ESD,
                                                   ML-optimized integration grids
   S Lehtola, MJT Oliveira, MAL Marques          : LibXC Library
   Liviu Ungur et al                             : ANISO software


 Your calculation uses the libint2 library for the computation of 2-el integrals
 For citations please refer to: http://libint.valeyev.net

 Your ORCA version has been built with support for libXC version: 5.1.0
 For citations please refer to: https://tddft.org/programs/libxc/

 This ORCA versions uses:
   CBLAS   interface :  Fast vector & matrix operations
   LAPACKE interface :  Fast linear algebra routines
   Shared memory     :  Shared parallel matrices


XCFun DFT library Copyright 2009-2010 Ulf Ekstrom and contributors.
See http://admol.org/xcfun for more information.
This is free software; see the source code for copying conditions.
There is ABSOLUTELY NO WARRANTY; not even for MERCHANTABILITY or FITNESS FOR A PARTICULAR PURPOSE.
For details see the documentation.
Scientific users of this library should cite U. Ekstrom, L. Visscher, R. Bast, A. J. Thorvaldsen and K. Ruud;
J.Chem.Theor.Comp. 2010, DOI: 10.1021/ct100117s
XCFun Version 0.99 

================================================================================

----- Orbital basis set information -----
Your calculation utilizes the basis: def2-TZVP
   F. Weigend and R. Ahlrichs, Phys. Chem. Chem. Phys. 7, 3297 (2005).

----- AuxJ basis set information -----
Your calculation utilizes the auxiliary basis: def2/J
   F. Weigend, Phys. Chem. Chem. Phys. 8, 1057 (2006).

================================================================================
                                        WARNINGS
                       Please study these warnings very carefully!
================================================================================


WARNING: Geometry Optimization
  ===> : Switching off AutoStart
         For restart on a previous wavefunction, please use MOREAD

WARNING: Minnesota functionals are quite sensitive to the integration grid.
         see SE Wheeler, KN Houk, JCTC 2010, 6, 395,
             N Mardirossian, M Head-Gordon, JCTC 2016, 12, 4303.
         DEFGRID3 seems to be a minimum grid for reliable results with these functionals!
  ===> : Please increase the integration grid!


INFO   : the flag for use of the SHARK integral package has been found!

================================================================================
                                       INPUT FILE
================================================================================
NAME = five_six_two_one_ten_eight_loss.inp
|  1> !M062x def2-tzvp opt freq tightscf
|  2> 
|  3> %freq
|  4> Temp 298.15,10,20,50,100,6000,8000,10000
|  5> end
|  6> 
|  7> %maxcore 4000
|  8> %pal
|  9> nprocs 3
| 10> end
| 11> 
| 12> 
| 13> %geom
| 14>   maxiter 2000
| 15>   end
| 16> 
| 17> * xyz 0 1
| 18>   C   2.46362427987247     -2.85071308273857     -0.00000218907091
| 19>   C   1.27719400513090     -3.52585311672403     -0.00003902795947
| 20>   C   0.05064934326115     -2.82613554872827     -0.00011828018749
| 21>   C   -1.19925193688694     -3.46606389677068     -0.00015928151260
| 22>   C   -2.39885271805658     -2.87183824187673     -0.00023283554738
| 23>   C   -2.43518053153382     -1.44080024452875     -0.00027277196623
| 24>   C   -3.66777674509120     -0.75191121775761     -0.00034379554662
| 25>   C   -3.71279324924276      0.61270000430768     -0.00038290810371
| 26>   C   -2.51870888891228      1.35470401292599     -0.00035207453727
| 27>   C   -2.33852946574720      2.75004532075493     -0.00038523866368
| 28>   C   -1.29227857579710      3.37936032270345     -0.00036005870682
| 29>   C   0.02296635156368      2.87874227377718     -0.00029143038758
| 30>   C   1.23211767469076      3.59211777508479     -0.00026457178571
| 31>   C   2.42594730830480      2.92563510630820     -0.00019121984698
| 32>   C   2.44893445959464      1.52227723319545     -0.00014614397662
| 33>   C   3.55845924150033      0.65762020353451     -0.00006795876215
| 34>   C   3.57066637986837     -0.56331157183495     -0.00002324805222
| 35>   C   2.47403114247392     -1.44414615823703     -0.00004617494814
| 36>   C   1.25557023434205     -0.69183165762109     -0.00012491861115
| 37>   C   1.23800989899349      0.75081893774134     -0.00017659337158
| 38>   C   -0.00359548669936      1.44369816359284     -0.00024809051538
| 39>   C   -1.24385874208543      0.70472511229996     -0.00028011039122
| 40>   C   -1.22033926149096     -0.71624674943317     -0.00023589301594
| 41>   C   0.03056944314590     -1.40895937212992     -0.00016349124726
| 42>   H   3.40592714860256     -3.38099880595279      0.00006084796734
| 43>   H   1.25543248807529     -4.60779790743838     -0.00000593698860
| 44>   H   -3.32874432396662     -3.42840544994019     -0.00026138694326
| 45>   H   -4.65611295060898      1.14148914368134     -0.00043697075864
| 46>   H   1.19941226127863      4.67287271493635     -0.00030009286005
| 47>   H   3.36338199069149      3.46449630946482     -0.00016807868239
| 48> **                         ****END OF INPUT****
================================================================================

                       *****************************
                       * Geometry Optimization Run *
                       *****************************

Geometry optimization settings:
Update method            Update   .... BFGS
Choice of coordinates    CoordSys .... Z-matrix Internals
Initial Hessian          InHess   .... Almoef's Model

Convergence Tolerances:
Energy Change            TolE     ....  5.0000e-06 Eh
Max. Gradient            TolMAXG  ....  3.0000e-04 Eh/bohr
RMS Gradient             TolRMSG  ....  1.0000e-04 Eh/bohr
Max. Displacement        TolMAXD  ....  4.0000e-03 bohr
RMS Displacement         TolRMSD  ....  2.0000e-03 bohr
Strict Convergence                ....  False
------------------------------------------------------------------------------
                        ORCA OPTIMIZATION COORDINATE SETUP
------------------------------------------------------------------------------

The optimization will be done in new redundant internal coordinates
Making redundant internal coordinates   ...  (new redundants) done
Evaluating the initial hessian          ...  (Almloef) done
Evaluating the coordinates              ...  done
Calculating the B-matrix                .... done
Calculating the G-matrix                .... done
Diagonalizing the G-matrix              .... done
The first mode is                       ....  110
The number of degrees of freedom        ....   84

    -----------------------------------------------------------------
                    Redundant Internal Coordinates


    -----------------------------------------------------------------
         Definition                    Initial Value    Approx d2E/dq
    -----------------------------------------------------------------
      1. B(C   1,C   0)                  1.3651         0.684706   
      2. B(C   2,C   1)                  1.4121         0.576083   
      3. B(C   3,C   2)                  1.4042         0.593052   
      4. B(C   4,C   3)                  1.3387         0.754341   
      5. B(C   5,C   4)                  1.4315         0.536450   
      6. B(C   6,C   5)                  1.4120         0.576199   
      7. B(C   7,C   6)                  1.3654         0.684007   
      8. B(C   8,C   7)                  1.4058         0.589461   
      9. B(C   9,C   8)                  1.4069         0.587129   
     10. B(C  10,C   9)                  1.2209         1.162716   
     11. B(C  11,C  10)                  1.4073         0.586328   
     12. B(C  12,C  11)                  1.4039         0.593680   
     13. B(C  13,C  12)                  1.3673         0.679207   
     14. B(C  14,C  13)                  1.4035         0.594465   
     15. B(C  15,C  14)                  1.4067         0.587716   
     16. B(C  16,C  15)                  1.2210         1.162462   
     17. B(C  17,C  16)                  1.4066         0.587868   
     18. B(C  17,C   0)                  1.4066         0.587822   
     19. B(C  18,C  17)                  1.4320         0.535464   
     20. B(C  19,C  18)                  1.4428         0.514716   
     21. B(C  19,C  14)                  1.4358         0.528065   
     22. B(C  20,C  19)                  1.4219         0.555801   
     23. B(C  20,C  11)                  1.4353         0.529031   
     24. B(C  21,C  20)                  1.4437         0.512894   
     25. B(C  21,C   8)                  1.4310         0.537466   
     26. B(C  22,C  21)                  1.4212         0.557204   
     27. B(C  22,C   5)                  1.4145         0.571014   
     28. B(C  23,C  22)                  1.4299         0.539604   
     29. B(C  23,C  18)                  1.4195         0.560685   
     30. B(C  23,C   2)                  1.4173         0.565137   
     31. B(H  24,C   0)                  1.0813         0.371840   
     32. B(H  25,C   1)                  1.0822         0.370617   
     33. B(H  26,C   4)                  1.0837         0.368494   
     34. B(H  27,C   7)                  1.0814         0.371631   
     35. B(H  28,C  12)                  1.0812         0.371864   
     36. B(H  29,C  13)                  1.0813         0.371829   
     37. A(C  17,C   0,H  24)          118.9449         0.351645   
     38. A(C   1,C   0,C  17)          120.0660         0.437675   
     39. A(C   1,C   0,H  24)          120.9890         0.360873   
     40. A(C   0,C   1,C   2)          120.6541         0.436087   
     41. A(C   2,C   1,H  25)          118.5516         0.350254   
     42. A(C   0,C   1,H  25)          120.7944         0.360670   
     43. A(C   1,C   2,C  23)          120.5156         0.421333   
     44. A(C   1,C   2,C   3)          123.1845         0.424979   
     45. A(C   3,C   2,C  23)          116.2999         0.423524   
     46. A(C   2,C   3,C   4)          126.5367         0.446119   
     47. A(C   3,C   4,H  26)          122.7466         0.366330   
     48. A(C   5,C   4,H  26)          119.4476         0.345739   
     49. A(C   3,C   4,C   5)          117.8058         0.438102   
     50. A(C   4,C   5,C  22)          119.3584         0.416781   
     51. A(C   6,C   5,C  22)          119.9869         0.422127   
     52. A(C   4,C   5,C   6)          120.6547         0.417452   
     53. A(C   5,C   6,C   7)          121.0899         0.436023   
     54. A(C   6,C   7,C   8)          119.9674         0.437815   
     55. A(C   8,C   7,H  27)          118.8699         0.351777   
     56. A(C   6,C   7,H  27)          121.1627         0.360775   
     57. A(C   9,C   8,C  21)          109.6568         0.418993   
     58. A(C   7,C   8,C   9)          129.2147         0.425963   
     59. A(C   7,C   8,C  21)          121.1285         0.419290   
     60. A(C   8,C   9,C  10)          128.3846         0.481967   
     61. A(C   9,C  10,C  11)          128.1351         0.481846   
     62. A(C  12,C  11,C  20)          121.6002         0.418641   
     63. A(C  10,C  11,C  20)          109.7778         0.417713   
     64. A(C  10,C  11,C  12)          128.6220         0.426403   
     65. A(C  11,C  12,H  28)          118.8064         0.352239   
     66. A(C  11,C  12,C  13)          120.2868         0.437822   
     67. A(C  13,C  12,H  28)          120.9068         0.360381   
     68. A(C  14,C  13,H  29)          118.9530         0.352312   
     69. A(C  12,C  13,H  29)          120.9352         0.360375   
     70. A(C  12,C  13,C  14)          120.1119         0.437926   
     71. A(C  13,C  14,C  15)          128.8679         0.426685   
     72. A(C  15,C  14,C  19)          109.5701         0.417752   
     73. A(C  13,C  14,C  19)          121.5621         0.418603   
     74. A(C  14,C  15,C  16)          128.5023         0.482036   
     75. A(C  15,C  16,C  17)          128.1991         0.482060   
     76. A(C  16,C  17,C  18)          109.5356         0.418809   
     77. A(C   0,C  17,C  18)          121.2685         0.418803   
     78. A(C   0,C  17,C  16)          129.1959         0.425847   
     79. A(C  17,C  18,C  19)          122.3898         0.409037   
     80. A(C  19,C  18,C  23)          119.6477         0.412388   
     81. A(C  17,C  18,C  23)          117.9624         0.415293   
     82. A(C  18,C  19,C  20)          119.8611         0.411748   
     83. A(C  14,C  19,C  20)          118.3358         0.413624   
     84. A(C  14,C  19,C  18)          121.8031         0.408030   
     85. A(C  11,C  20,C  19)          118.1034         0.413758   
     86. A(C  19,C  20,C  21)          120.0489         0.411489   
     87. A(C  11,C  20,C  21)          121.8477         0.407906   
     88. A(C  20,C  21,C  22)          119.8391         0.411673   
     89. A(C   8,C  21,C  22)          117.9629         0.415109   
     90. A(C   8,C  21,C  20)          122.1981         0.409050   
     91. A(C  21,C  22,C  23)          119.9245         0.415402   
     92. A(C   5,C  22,C  23)          120.2111         0.417216   
     93. A(C   5,C  22,C  21)          119.8644         0.419609   
     94. A(C  18,C  23,C  22)          120.6786         0.415863   
     95. A(C   2,C  23,C  22)          119.7880         0.416448   
     96. A(C   2,C  23,C  18)          119.5334         0.419301   
     97. D(C   2,C   1,C   0,H  24)    179.9999         0.032899   
     98. D(C   2,C   1,C   0,C  17)     -0.0001         0.032899   
     99. D(H  25,C   1,C   0,H  24)     -0.0000         0.032899   
    100. D(H  25,C   1,C   0,C  17)    180.0000         0.032899   
    101. D(C  23,C   2,C   1,C   0)      0.0001         0.022787   
    102. D(C   3,C   2,C   1,H  25)     -0.0001         0.022787   
    103. D(C   3,C   2,C   1,C   0)    180.0000         0.022787   
    104. D(C  23,C   2,C   1,H  25)    180.0000         0.022787   
    105. D(C   4,C   3,C   2,C  23)     -0.0002         0.021974   
    106. D(C   4,C   3,C   2,C   1)    179.9999         0.021974   
    107. D(C   5,C   4,C   3,C   2)     -0.0001         0.036764   
    108. D(H  26,C   4,C   3,C   2)    180.0000         0.036764   
    109. D(C  22,C   5,C   4,H  26)   -180.0000         0.019656   
    110. D(C   6,C   5,C   4,H  26)      0.0002         0.019656   
    111. D(C  22,C   5,C   4,C   3)      0.0001         0.019656   
    112. D(C   6,C   5,C   4,C   3)   -179.9997         0.019656   
    113. D(C   7,C   6,C   5,C   4)   -180.0000         0.020694   
    114. D(C   7,C   6,C   5,C  22)      0.0002         0.020694   
    115. D(H  27,C   7,C   6,C   5)   -180.0000         0.029735   
    116. D(C   8,C   7,C   6,C   5)     -0.0000         0.029735   
    117. D(C  21,C   8,C   7,H  27)    180.0000         0.023909   
    118. D(C  21,C   8,C   7,C   6)      0.0000         0.023909   
    119. D(C   9,C   8,C   7,H  27)     -0.0002         0.023909   
    120. D(C   9,C   8,C   7,C   6)    179.9999         0.023909   
    121. D(C  10,C   9,C   8,C  21)     -0.0000         0.021519   
    122. D(C  10,C   9,C   8,C   7)   -179.9999         0.021519   
    123. D(C  11,C  10,C   9,C   8)      0.0000         0.086136   
    124. D(C  20,C  11,C  10,C   9)     -0.0001         0.021458   
    125. D(C  12,C  11,C  10,C   9)    179.9999         0.021458   
    126. D(C  13,C  12,C  11,C  10)    179.9998         0.024270   
    127. D(C  13,C  12,C  11,C  20)     -0.0002         0.024270   
    128. D(H  28,C  12,C  11,C  20)    180.0000         0.024270   
    129. D(H  28,C  12,C  11,C  10)     -0.0001         0.024270   
    130. D(H  29,C  13,C  12,H  28)     -0.0001         0.032332   
    131. D(H  29,C  13,C  12,C  11)   -179.9999         0.032332   
    132. D(C  14,C  13,C  12,C  11)      0.0002         0.032332   
    133. D(C  14,C  13,C  12,H  28)   -180.0000         0.032332   
    134. D(C  19,C  14,C  13,H  29)   -179.9999         0.024338   
    135. D(C  19,C  14,C  13,C  12)      0.0001         0.024338   
    136. D(C  15,C  14,C  13,C  12)   -179.9999         0.024338   
    137. D(C  15,C  14,C  13,H  29)      0.0002         0.024338   
    138. D(C  16,C  15,C  14,C  13)    179.9996         0.021564   
    139. D(C  16,C  15,C  14,C  19)     -0.0003         0.021564   
    140. D(C  17,C  16,C  15,C  14)      0.0004         0.086092   
    141. D(C  18,C  17,C  16,C  15)     -0.0004         0.021575   
    142. D(C   0,C  17,C  16,C  15)    179.9997         0.021575   
    143. D(C  18,C  17,C   0,H  24)   -179.9998         0.023770   
    144. D(C  18,C  17,C   0,C   1)      0.0002         0.023770   
    145. D(C  16,C  17,C   0,H  24)      0.0002         0.023770   
    146. D(C  16,C  17,C   0,C   1)   -179.9998         0.023770   
    147. D(C  23,C  18,C  17,C  16)    179.9998         0.019582   
    148. D(C  23,C  18,C  17,C   0)     -0.0003         0.019582   
    149. D(C  19,C  18,C  17,C  16)      0.0003         0.019582   
    150. D(C  19,C  18,C  17,C   0)   -179.9998         0.019582   
    151. D(C  20,C  19,C  18,C  23)      0.0008         0.018061   
    152. D(C  20,C  19,C  18,C  17)   -179.9997         0.018061   
    153. D(C  14,C  19,C  18,C  23)   -179.9997         0.018061   
    154. D(C  14,C  19,C  18,C  17)     -0.0003         0.018061   
    155. D(C  20,C  19,C  14,C  15)    179.9997         0.019030   
    156. D(C  20,C  19,C  14,C  13)     -0.0003         0.019030   
    157. D(C  18,C  19,C  14,C  15)      0.0002         0.019030   
    158. D(C  18,C  19,C  14,C  13)   -179.9997         0.019030   
    159. D(C  19,C  20,C  11,C  10)    180.0000         0.019102   
    160. D(C  21,C  20,C  19,C  18)     -0.0005         0.021148   
    161. D(C  21,C  20,C  19,C  14)   -180.0000         0.021148   
    162. D(C  11,C  20,C  19,C  18)    179.9997         0.021148   
    163. D(C  11,C  20,C  19,C  14)      0.0002         0.021148   
    164. D(C  21,C  20,C  11,C  12)   -179.9998         0.019102   
    165. D(C  21,C  20,C  11,C  10)      0.0002         0.019102   
    166. D(C  19,C  20,C  11,C  12)     -0.0000         0.019102   
    167. D(C  22,C  21,C  20,C  19)      0.0002         0.017931   
    168. D(C  22,C  21,C  20,C  11)    180.0000         0.017931   
    169. D(C   8,C  21,C  20,C  19)   -180.0000         0.017931   
    170. D(C   8,C  21,C  20,C  11)     -0.0002         0.017931   
    171. D(C  22,C  21,C   8,C   9)    179.9999         0.019733   
    172. D(C  22,C  21,C   8,C   7)     -0.0002         0.019733   
    173. D(C  20,C  21,C   8,C   9)      0.0001         0.019733   
    174. D(C  20,C  21,C   8,C   7)    180.0000         0.019733   
    175. D(C  23,C  22,C  21,C  20)     -0.0002         0.021259   
    176. D(C  23,C  22,C  21,C   8)   -180.0000         0.021259   
    177. D(C   5,C  22,C  21,C  20)   -179.9997         0.021259   
    178. D(C   5,C  22,C  21,C   8)      0.0004         0.021259   
    179. D(C  23,C  22,C   5,C   6)    180.0000         0.022370   
    180. D(C  23,C  22,C   5,C   4)      0.0002         0.022370   
    181. D(C  21,C  22,C   5,C   6)     -0.0004         0.022370   
    182. D(C  21,C  22,C   5,C   4)    179.9998         0.022370   
    183. D(C  18,C  23,C  22,C  21)      0.0005         0.019895   
    184. D(C  18,C  23,C  22,C   5)   -180.0000         0.019895   
    185. D(C   2,C  23,C  22,C  21)    179.9999         0.019895   
    186. D(C   2,C  23,C  22,C   5)     -0.0005         0.019895   
    187. D(C  22,C  23,C  18,C  19)     -0.0008         0.021536   
    188. D(C  22,C  23,C  18,C  17)    179.9997         0.021536   
    189. D(C   2,C  23,C  18,C  19)    179.9997         0.021536   
    190. D(C   2,C  23,C  18,C  17)      0.0002         0.021536   
    191. D(C  22,C  23,C   2,C   3)      0.0005         0.021893   
    192. D(C  22,C  23,C   2,C   1)   -179.9996         0.021893   
    193. D(C  18,C  23,C   2,C   3)    179.9999         0.021893   
    194. D(C  18,C  23,C   2,C   1)     -0.0002         0.021893   
    -----------------------------------------------------------------

Number of atoms                         .... 30
Number of degrees of freedom            .... 194

         *************************************************************
         *                GEOMETRY OPTIMIZATION CYCLE   1            *
         *************************************************************
---------------------------------
CARTESIAN COORDINATES (ANGSTROEM)
---------------------------------
  C      2.463624   -2.850713   -0.000002
  C      1.277194   -3.525853   -0.000039
  C      0.050649   -2.826136   -0.000118
  C     -1.199252   -3.466064   -0.000159
  C     -2.398853   -2.871838   -0.000233
  C     -2.435181   -1.440800   -0.000273
  C     -3.667777   -0.751911   -0.000344
  C     -3.712793    0.612700   -0.000383
  C     -2.518709    1.354704   -0.000352
  C     -2.338529    2.750045   -0.000385
  C     -1.292279    3.379360   -0.000360
  C      0.022966    2.878742   -0.000291
  C      1.232118    3.592118   -0.000265
  C      2.425947    2.925635   -0.000191
  C      2.448934    1.522277   -0.000146
  C      3.558459    0.657620   -0.000068
  C      3.570666   -0.563312   -0.000023
  C      2.474031   -1.444146   -0.000046
  C      1.255570   -0.691832   -0.000125
  C      1.238010    0.750819   -0.000177
  C     -0.003595    1.443698   -0.000248
  C     -1.243859    0.704725   -0.000280
  C     -1.220339   -0.716247   -0.000236
  C      0.030569   -1.408959   -0.000163
  H      3.405927   -3.380999    0.000061
  H      1.255432   -4.607798   -0.000006
  H     -3.328744   -3.428405   -0.000261
  H     -4.656113    1.141489   -0.000437
  H      1.199412    4.672873   -0.000300
  H      3.363382    3.464496   -0.000168

----------------------------
CARTESIAN COORDINATES (A.U.)
----------------------------
  NO LB      ZA    FRAG     MASS         X           Y           Z
   0 C     6.0000    0    12.011    4.655575   -5.387067   -0.000004
   1 C     6.0000    0    12.011    2.413547   -6.662897   -0.000074
   2 C     6.0000    0    12.011    0.095713   -5.340622   -0.000224
   3 C     6.0000    0    12.011   -2.266258   -6.549912   -0.000301
   4 C     6.0000    0    12.011   -4.533175   -5.426988   -0.000440
   5 C     6.0000    0    12.011   -4.601824   -2.722718   -0.000515
   6 C     6.0000    0    12.011   -6.931094   -1.420906   -0.000650
   7 C     6.0000    0    12.011   -7.016162    1.157835   -0.000724
   8 C     6.0000    0    12.011   -4.759670    2.560020   -0.000665
   9 C     6.0000    0    12.011   -4.419180    5.196833   -0.000728
  10 C     6.0000    0    12.011   -2.442053    6.386066   -0.000680
  11 C     6.0000    0    12.011    0.043400    5.440035   -0.000551
  12 C     6.0000    0    12.011    2.328365    6.788119   -0.000500
  13 C     6.0000    0    12.011    4.584376    5.528649   -0.000361
  14 C     6.0000    0    12.011    4.627815    2.876687   -0.000276
  15 C     6.0000    0    12.011    6.724513    1.242722   -0.000128
  16 C     6.0000    0    12.011    6.747582   -1.064505   -0.000044
  17 C     6.0000    0    12.011    4.675241   -2.729041   -0.000087
  18 C     6.0000    0    12.011    2.372684   -1.307372   -0.000236
  19 C     6.0000    0    12.011    2.339500    1.418842   -0.000334
  20 C     6.0000    0    12.011   -0.006794    2.728194   -0.000469
  21 C     6.0000    0    12.011   -2.350552    1.331737   -0.000529
  22 C     6.0000    0    12.011   -2.306107   -1.353510   -0.000446
  23 C     6.0000    0    12.011    0.057768   -2.662547   -0.000309
  24 H     1.0000    0     1.008    6.436270   -6.389162    0.000115
  25 H     1.0000    0     1.008    2.372424   -8.707476   -0.000011
  26 H     1.0000    0     1.008   -6.290415   -6.478747   -0.000494
  27 H     1.0000    0     1.008   -8.798778    2.157102   -0.000826
  28 H     1.0000    0     1.008    2.266561    8.830450   -0.000567
  29 H     1.0000    0     1.008    6.355871    6.546949   -0.000318

--------------------------------
INTERNAL COORDINATES (ANGSTROEM)
--------------------------------
 C      0   0   0     0.000000000000     0.00000000     0.00000000
 C      1   0   0     1.365075405855     0.00000000     0.00000000
 C      2   1   0     1.412096487073   120.65405474     0.00000000
 C      3   2   1     1.404194253807   123.18448403   179.99999548
 C      4   3   2     1.338710636593   126.53667483   179.99993029
 C      5   4   3     1.431499026015   117.80582306     0.00000000
 C      6   5   4     1.412041614800   120.65468373   180.00031337
 C      7   6   5     1.365353534643   121.08992386   180.00002878
 C      8   7   6     1.405847576853   119.96739963     0.00000000
 C      9   8   7     1.406926434099   129.21466480   179.99985058
 C     10   9   8     1.220933371250   128.38455854   180.00014667
 C     11  10   9     1.407297997785   128.13510071     0.00000000
 C     12  11  10     1.403905811943   128.62204290   179.99986207
 C     13  12  11     1.367270400197   120.28679399   179.99978107
 C     14  13  12     1.403546127202   120.11186410     0.00000000
 C     15  14  13     1.406654551309   128.86785381   180.00012098
 C     16  15  14     1.220992799460   128.50226321   179.99964904
 C     17  16  15     1.406583951644   128.19913909     0.00000000
 C     18  17  16     1.432000034456   109.53559171     0.00000000
 C     15  14  13     1.435787656312   121.56205315     0.00000000
 C     20  15  14     1.421852861765   118.33577083     0.00000000
 C      9   8   7     1.430984092610   121.12854471     0.00000000
 C      6   5   4     1.414502414284   119.35844359     0.00000000
 C      3   2   1     1.417318425743   120.51560303     0.00000000
 H      1   2   3     1.081266687102   120.98903654   179.99985380
 H      2   1   3     1.082163617423   120.79436281   180.00013951
 H      5   4   3     1.083727574923   122.74660524   179.99997955
 H      8   7   6     1.081420369619   121.16274943   180.00002077
 H     13  12  11     1.081249686863   118.80643386     0.00000000
 H     14  13  12     1.081274794187   120.93518279   180.00011322

---------------------------
INTERNAL COORDINATES (A.U.)
---------------------------
 C      0   0   0     0.000000000000     0.00000000     0.00000000
 C      1   0   0     2.579618669217     0.00000000     0.00000000
 C      2   1   0     2.668475635240   120.65405474     0.00000000
 C      3   2   1     2.653542578522   123.18448403   179.99999548
 C      4   3   2     2.529796475728   126.53667483   179.99993029
 C      5   4   3     2.705141120143   117.80582306     0.00000000
 C      6   5   4     2.668371941671   120.65468373   180.00031337
 C      7   6   5     2.580144256457   121.08992386   180.00002878
 C      8   7   6     2.656666906288   119.96739963     0.00000000
 C      9   8   7     2.658705651021   129.21466480   179.99985058
 C     10   9   8     2.307229699428   128.38455854   180.00014667
 C     11  10   9     2.659407804629   128.13510071     0.00000000
 C     12  11  10     2.652997502393   128.62204290   179.99986207
 C     13  12  11     2.583766607389   120.28679399   179.99978107
 C     14  13  12     2.652317796738   120.11186410     0.00000000
 C     15  14  13     2.658191867008   128.86785381   180.00012098
 C     16  15  14     2.307342002469   128.50226321   179.99964904
 C     17  16  15     2.658058452976   128.19913909     0.00000000
 C     18  17  16     2.706087888888   109.53559171     0.00000000
 C     15  14  13     2.713245456895   121.56205315     0.00000000
 C     20  15  14     2.686912511468   118.33577083     0.00000000
 C      9   8   7     2.704168037030   121.12854471     0.00000000
 C      6   5   4     2.673022178767   119.35844359     0.00000000
 C      3   2   1     2.678343669215   120.51560303     0.00000000
 H      1   2   3     2.043297916354   120.98903654   179.99985380
 H      2   1   3     2.044992869023   120.79436281   180.00013951
 H      5   4   3     2.047948320383   122.74660524   179.99997955
 H      8   7   6     2.043588334225   121.16274943   180.00002077
 H     13  12  11     2.043265790560   118.80643386     0.00000000
 H     14  13  12     2.043313236526   120.93518279   180.00011322

---------------------
BASIS SET INFORMATION
---------------------
There are 2 groups of distinct atoms

 Group   1 Type C   : 11s6p2d1f contracted to 5s3p2d1f pattern {62111/411/11/1}
 Group   2 Type H   : 5s1p contracted to 3s1p pattern {311/1}

Atom   0C    basis set group =>   1
Atom   1C    basis set group =>   1
Atom   2C    basis set group =>   1
Atom   3C    basis set group =>   1
Atom   4C    basis set group =>   1
Atom   5C    basis set group =>   1
Atom   6C    basis set group =>   1
Atom   7C    basis set group =>   1
Atom   8C    basis set group =>   1
Atom   9C    basis set group =>   1
Atom  10C    basis set group =>   1
Atom  11C    basis set group =>   1
Atom  12C    basis set group =>   1
Atom  13C    basis set group =>   1
Atom  14C    basis set group =>   1
Atom  15C    basis set group =>   1
Atom  16C    basis set group =>   1
Atom  17C    basis set group =>   1
Atom  18C    basis set group =>   1
Atom  19C    basis set group =>   1
Atom  20C    basis set group =>   1
Atom  21C    basis set group =>   1
Atom  22C    basis set group =>   1
Atom  23C    basis set group =>   1
Atom  24H    basis set group =>   2
Atom  25H    basis set group =>   2
Atom  26H    basis set group =>   2
Atom  27H    basis set group =>   2
Atom  28H    basis set group =>   2
Atom  29H    basis set group =>   2
---------------------------------
AUXILIARY/J BASIS SET INFORMATION
---------------------------------
There are 2 groups of distinct atoms

 Group   1 Type C   : 12s5p4d2f1g contracted to 6s4p3d1f1g pattern {711111/2111/211/2/1}
 Group   2 Type H   : 5s2p1d contracted to 3s1p1d pattern {311/2/1}

Atom   0C    basis set group =>   1
Atom   1C    basis set group =>   1
Atom   2C    basis set group =>   1
Atom   3C    basis set group =>   1
Atom   4C    basis set group =>   1
Atom   5C    basis set group =>   1
Atom   6C    basis set group =>   1
Atom   7C    basis set group =>   1
Atom   8C    basis set group =>   1
Atom   9C    basis set group =>   1
Atom  10C    basis set group =>   1
Atom  11C    basis set group =>   1
Atom  12C    basis set group =>   1
Atom  13C    basis set group =>   1
Atom  14C    basis set group =>   1
Atom  15C    basis set group =>   1
Atom  16C    basis set group =>   1
Atom  17C    basis set group =>   1
Atom  18C    basis set group =>   1
Atom  19C    basis set group =>   1
Atom  20C    basis set group =>   1
Atom  21C    basis set group =>   1
Atom  22C    basis set group =>   1
Atom  23C    basis set group =>   1
Atom  24H    basis set group =>   2
Atom  25H    basis set group =>   2
Atom  26H    basis set group =>   2
Atom  27H    basis set group =>   2
Atom  28H    basis set group =>   2
Atom  29H    basis set group =>   2


           ************************************************************
           *        Program running with 3 parallel MPI-processes     *
           *              working on a common directory               *
           ************************************************************
------------------------------------------------------------------------------
                           ORCA GTO INTEGRAL CALCULATION
                           -- RI-GTO INTEGRALS CHOSEN --
------------------------------------------------------------------------------
------------------------------------------------------------------------------
                   ___                                                        
                  /   \      - P O W E R E D   B Y -                         
                 /     \                                                     
                 |  |  |   _    _      __       _____    __    __             
                 |  |  |  | |  | |    /  \     |  _  \  |  |  /  |          
                  \  \/   | |  | |   /    \    | | | |  |  | /  /          
                 / \  \   | |__| |  /  /\  \   | |_| |  |  |/  /          
                |  |  |   |  __  | /  /__\  \  |    /   |      \           
                |  |  |   | |  | | |   __   |  |    \   |  |\   \          
                \     /   | |  | | |  |  |  |  | |\  \  |  | \   \       
                 \___/    |_|  |_| |__|  |__|  |_| \__\ |__|  \__/        
                                                                              
                      - O R C A' S   B I G   F R I E N D -                    
                                      &                                       
                       - I N T E G R A L  F E E D E R -                       
                                                                              
 v1 FN, 2020, v2 2021                                                         
------------------------------------------------------------------------------


Reading SHARK input file five_six_two_one_ten_eight_loss.SHARKINP.tmp ... ok
----------------------
SHARK INTEGRAL PACKAGE
----------------------

Number of atoms                             ...     30
Number of basis functions                   ...    780
Number of shells                            ...    288
Maximum angular momentum                    ...      3
Integral batch strategy                     ... SHARK/LIBINT Hybrid
RI-J (if used) integral strategy            ... SPLIT-RIJ (Revised 2003 algorithm where possible)
Printlevel                                  ...      1
Contraction scheme used                     ... SEGMENTED contraction
Coulomb Range Separation                    ... NOT USED
Exchange Range Separation                   ... NOT USED
Finite Nucleus Model                        ... NOT USED
Auxiliary Coulomb fitting basis             ... AVAILABLE
   # of basis functions in Aux-J            ...   1242
   # of shells in Aux-J                     ...    390
   Maximum angular momentum in Aux-J        ...      4
Auxiliary J/K fitting basis                 ... NOT available
Auxiliary Correlation fitting basis         ... NOT available
Auxiliary 'external' fitting basis          ... NOT available
Integral threshold                          ...     2.500000e-11
Primitive cut-off                           ...     2.500000e-12
Primitive pair pre-selection threshold      ...     2.500000e-12

Calculating pre-screening integrals         ... done (  0.1 sec) Dimension = 288
Organizing shell pair data                  ... done (  0.9 sec)
Shell pair information
Total number of shell pairs                 ...     41616
Shell pairs after pre-screening             ...     32521
Total number of primitive shell pairs       ...    133932
Primitive shell pairs kept                  ...     69747
          la=0 lb=0:   6870 shell pairs
          la=1 lb=0:   8819 shell pairs
          la=1 lb=1:   2733 shell pairs
          la=2 lb=0:   5003 shell pairs
          la=2 lb=1:   3177 shell pairs
          la=2 lb=2:    935 shell pairs
          la=3 lb=0:   2340 shell pairs
          la=3 lb=1:   1544 shell pairs
          la=3 lb=2:    874 shell pairs
          la=3 lb=3:    226 shell pairs

Calculating one electron integrals          ... done (  0.1 sec)
Calculating RI/J V-Matrix + Cholesky decomp.... done (  0.1 sec)
Calculating Nuclear repulsion               ... done (  0.0 sec) ENN=   1726.964302971001 Eh

SHARK setup successfully completed in   2.8 seconds

Maximum memory used throughout the entire GTOINT-calculation: 51.7 MB


           ************************************************************
           *        Program running with 3 parallel MPI-processes     *
           *              working on a common directory               *
           ************************************************************
-------------------------------------------------------------------------------
                                 ORCA SCF
-------------------------------------------------------------------------------

------------
SCF SETTINGS
------------
Hamiltonian:
 Density Functional     Method          .... DFT(GTOs)
 Exchange Functional    Exchange        .... M062X
 Correlation Functional Correlation     .... M062X
 Gradients option       PostSCFGGA      .... off
 Hybrid DFT is turned on
   Fraction HF Exchange ScalHFX         ....  0.540000
   Scaling of DF-GGA-X  ScalDFX         ....  0.460000
   Scaling of DF-GGA-C  ScalDFC         ....  1.000000
   Scaling of DF-LDA-C  ScalLDAC        ....  1.000000
   Perturbative correction              ....  0.000000
   Density functional embedding theory  .... OFF
 RI-approximation to the Coulomb term is turned on
   Number of AuxJ basis functions       .... 1242
   RIJ-COSX (HFX calculated with COS-X)).... on


General Settings:
 Integral files         IntName         .... five_six_two_one_ten_eight_loss
 Hartree-Fock type      HFTyp           .... RHF
 Total Charge           Charge          ....    0
 Multiplicity           Mult            ....    1
 Number of Electrons    NEL             ....  150
 Basis Dimension        Dim             ....  780
 Nuclear Repulsion      ENuc            ....   1726.9643029710 Eh

Convergence Acceleration:
 DIIS                   CNVDIIS         .... on
   Start iteration      DIISMaxIt       ....    12
   Startup error        DIISStart       ....  0.200000
   # of expansion vecs  DIISMaxEq       ....     5
   Bias factor          DIISBfac        ....   1.050
   Max. coefficient     DIISMaxC        ....  10.000
 Trust-Rad. Augm. Hess. CNVTRAH         .... auto
   Auto Start mean grad. ratio tolernc. ....  1.125000
   Auto Start start iteration           ....    20
   Auto Start num. interpolation iter.  ....    10
   Max. Number of Micro iterations      ....    16
   Max. Number of Macro iterations      .... Maxiter - #DIIS iter
   Number of Davidson start vectors     ....     2
   Converg. threshold I  (grad. norm)   ....   1.000e-05
   Converg. threshold II (energy diff.) ....   1.000e-08
   Grad. Scal. Fac. for Micro threshold ....   0.100
   Minimum threshold for Micro iter.    ....   0.010
   NR start threshold (gradient norm)   ....   0.001
   Initial trust radius                 ....   0.400
   Minimum AH scaling param. (alpha)    ....   1.000
   Maximum AH scaling param. (alpha)    .... 1000.000
   Orbital update algorithm             .... Taylor
   White noise on init. David. guess    .... on
   Maximum white noise                  ....   0.010
   Quad. conv. algorithm                .... NR
 SOSCF                  CNVSOSCF        .... on
   Start iteration      SOSCFMaxIt      ....   150
   Startup grad/error   SOSCFStart      ....  0.003300
 Level Shifting         CNVShift        .... on
   Level shift para.    LevelShift      ....    0.2500
   Turn off err/grad.   ShiftErr        ....    0.0010
 Zerner damping         CNVZerner       .... off
 Static damping         CNVDamp         .... on
   Fraction old density DampFac         ....    0.7000
   Max. Damping (<1)    DampMax         ....    0.9800
   Min. Damping (>=0)   DampMin         ....    0.0000
   Turn off err/grad.   DampErr         ....    0.1000
 Fernandez-Rico         CNVRico         .... off

SCF Procedure:
 Maximum # iterations   MaxIter         ....   125
 SCF integral mode      SCFMode         .... Direct
   Integral package                     .... SHARK and LIBINT hybrid scheme
 Reset frequency        DirectResetFreq ....    20
 Integral Threshold     Thresh          ....  2.500e-11 Eh
 Primitive CutOff       TCut            ....  2.500e-12 Eh

Convergence Tolerance:
 Convergence Check Mode ConvCheckMode   .... Total+1el-Energy
 Convergence forced     ConvForced      .... 0
 Energy Change          TolE            ....  1.000e-08 Eh
 1-El. energy change                    ....  1.000e-05 Eh
 Orbital Gradient       TolG            ....  1.000e-05
 Orbital Rotation angle TolX            ....  1.000e-05
 DIIS Error             TolErr          ....  5.000e-07


Diagonalization of the overlap matrix:
Smallest eigenvalue                        ... 7.501e-07
Time for diagonalization                   ...    0.060 sec
Threshold for overlap eigenvalues          ... 1.000e-08
Number of eigenvalues below threshold      ... 0
Time for construction of square roots      ...    0.055 sec
Total time needed                          ...    0.117 sec

Time for model grid setup =    0.379 sec

------------------------------
INITIAL GUESS: MODEL POTENTIAL
------------------------------
Loading Hartree-Fock densities                     ... done
Calculating cut-offs                               ... done
Initializing the effective Hamiltonian             ... done
Setting up the integral package (SHARK)            ... done
Starting the Coulomb interaction                   ... done (   0.9 sec)
Reading the grid                                   ... done
Mapping shells                                     ... done
Starting the XC term evaluation                    ... done (   0.9 sec)
  promolecular density results
     # of electrons  =    149.983022857
     EX              =   -124.527474268
     EC              =     -5.080527223
     EX+EC           =   -129.608001491
Transforming the Hamiltonian                       ... done (   0.0 sec)
Diagonalizing the Hamiltonian                      ... done (   0.1 sec)
Back transforming the eigenvectors                 ... done (   0.0 sec)
Now organizing SCF variables                       ... done
                      ------------------
                      INITIAL GUESS DONE (   2.4 sec)
                      ------------------
-------------------
DFT GRID GENERATION
-------------------

General Integration Accuracy     IntAcc      ... 4.388
Radial Grid Type                 RadialGrid  ... OptM3 with GC (2021)
Angular Grid (max. ang.)         AngularGrid ... 4 (Lebedev-302)
Angular grid pruning method      GridPruning ... 4 (adaptive)
Weight generation scheme         WeightScheme... Becke
Basis function cutoff            BFCut       ... 1.0000e-11
Integration weight cutoff        WCut        ... 1.0000e-14
Angular grids for H and He will be reduced by one unit
Partially contracted basis set               ... off
Rotationally invariant grid construction     ... off

Total number of grid points                  ...   161675
Total number of batches                      ...     2539
Average number of points per batch           ...       63
Average number of grid points per atom       ...     5389
Time for grid setup =    1.328 sec

--------------------
COSX GRID GENERATION
--------------------

GRIDX 1
-------
General Integration Accuracy     IntAcc      ... 3.816
Radial Grid Type                 RadialGrid  ... OptM3 with GC (2021)
Angular Grid (max. ang.)         AngularGrid ... 1 (Lebedev-50)
Angular grid pruning method      GridPruning ... 4 (adaptive)
Weight generation scheme         WeightScheme... Becke
Basis function cutoff            BFCut       ... 1.0000e-11
Integration weight cutoff        WCut        ... 1.0000e-14
Angular grids for H and He will be reduced by one unit
Partially contracted basis set               ... on
Rotationally invariant grid construction     ... off

Total number of grid points                  ...    20511
Total number of batches                      ...      335
Average number of points per batch           ...       61
Average number of grid points per atom       ...      684
UseSFitting                                  ... on

GRIDX 2
-------
General Integration Accuracy     IntAcc      ... 4.020
Radial Grid Type                 RadialGrid  ... OptM3 with GC (2021)
Angular Grid (max. ang.)         AngularGrid ... 2 (Lebedev-110)
Angular grid pruning method      GridPruning ... 4 (adaptive)
Weight generation scheme         WeightScheme... Becke
Basis function cutoff            BFCut       ... 1.0000e-11
Integration weight cutoff        WCut        ... 1.0000e-14
Angular grids for H and He will be reduced by one unit
Partially contracted basis set               ... on
Rotationally invariant grid construction     ... off

Total number of grid points                  ...    46264
Total number of batches                      ...      738
Average number of points per batch           ...       62
Average number of grid points per atom       ...     1542
UseSFitting                                  ... on

GRIDX 3
-------
General Integration Accuracy     IntAcc      ... 4.338
Radial Grid Type                 RadialGrid  ... OptM3 with GC (2021)
Angular Grid (max. ang.)         AngularGrid ... 3 (Lebedev-194)
Angular grid pruning method      GridPruning ... 4 (adaptive)
Weight generation scheme         WeightScheme... Becke
Basis function cutoff            BFCut       ... 1.0000e-11
Integration weight cutoff        WCut        ... 1.0000e-14
Angular grids for H and He will be reduced by one unit
Partially contracted basis set               ... on
Rotationally invariant grid construction     ... off

Total number of grid points                  ...   102058
Total number of batches                      ...     1609
Average number of points per batch           ...       63
Average number of grid points per atom       ...     3402
UseSFitting                                  ... on

Time for X-Grid setup             =    2.878 sec

--------------
SCF ITERATIONS
--------------
ITER       Energy         Delta-E        Max-DP      RMS-DP      [F,P]     Damp
               ***  Starting incremental Fock matrix formation  ***
  0   -917.2915603579   0.000000000000 0.09283442  0.00133591  0.1515359 0.7000
  1   -917.4819415850  -0.190381227046 0.08365800  0.00113906  0.0811636 0.7000
                               ***Turning on DIIS***
  2   -917.5626781886  -0.080736603684 0.20630359  0.00272890  0.0619766 0.0000
  3   -917.7175555344  -0.154877345793 0.04514297  0.00068024  0.0368984 0.0000
  4   -917.7319234660  -0.014367931597 0.01287509  0.00021371  0.0374388 0.0000
  5   -917.7371378683  -0.005214402242 0.00739188  0.00009721  0.0038358 0.0000
                      *** Initiating the SOSCF procedure ***
                           *** Shutting down DIIS ***
                      *** Re-Reading the Fockian *** 
                      *** Removing any level shift *** 
ITER      Energy       Delta-E        Grad      Rot      Max-DP    RMS-DP
  6   -917.73734055  -0.0002026851  0.000842  0.000842  0.003694  0.000054
               *** Restarting incremental Fock matrix formation ***
  7   -917.73707126   0.0002692961  0.000454  0.002858  0.046506  0.000649
  8   -917.73708303  -0.0000117731  0.001189  0.005257  0.107658  0.001121
  9   -917.73704388   0.0000391470  0.002727  0.004273  0.083043  0.000828
 10   -917.73708960  -0.0000457122  0.000336  0.002320  0.052901  0.000640
 11   -917.73708922   0.0000003796  0.000421  0.001338  0.027980  0.000363
 12   -917.73709624  -0.0000070209  0.000072  0.000251  0.007178  0.000083
 13   -917.73709587   0.0000003648  0.000100  0.000214  0.005709  0.000066
 14   -917.73709656  -0.0000006879  0.000012  0.000052  0.000819  0.000010
 15   -917.73709654   0.0000000160  0.000019  0.000036  0.000596  0.000007
                  ***Gradient check signals convergence***
              ***Rediagonalizing the Fockian in SOSCF/NRSCF***

               *****************************************************
               *                     SUCCESS                       *
               *           SCF CONVERGED AFTER  16 CYCLES          *
               *****************************************************

Old exchange energy                            =    -68.252849060 Eh
New exchange energy                            =    -68.252702983 Eh
Exchange energy change after final integration =      0.000146078 Eh
Total energy after final integration           =   -917.736950508 Eh
Final COS-X integration done in                =    67.310 sec

----------------
TOTAL SCF ENERGY
----------------

Total Energy       :         -917.73695051 Eh          -24972.89202 eV

Components:
Nuclear Repulsion  :         1726.96430297 Eh           46993.08777 eV
Electronic Energy  :        -2644.70125348 Eh          -71965.97979 eV
One Electron Energy:        -4667.79765526 Eh         -127017.23163 eV
Two Electron Energy:         2023.09640178 Eh           55051.25184 eV
Max COSX asymmetry :            0.00000464 Eh               0.00013 eV

Virial components:
Potential Energy   :        -1830.92749681 Eh          -49822.07009 eV
Kinetic Energy     :          913.19054630 Eh           24849.17807 eV
Virial Ratio       :            2.00497859


DFT components:
N(Alpha)           :       75.000121311434 electrons
N(Beta)            :       75.000121311434 electrons
N(Total)           :      150.000242622868 electrons
E(XC)              :      -63.834980836752 Eh       
DFET-embed. en.    :        0.000000000000 Eh       

---------------
SCF CONVERGENCE
---------------

  Last Energy change         ...   -4.1619e-08  Tolerance :   1.0000e-08
  Last MAX-Density change    ...    1.9984e-15  Tolerance :   1.0000e-07
  Last RMS-Density change    ...    1.1760e-17  Tolerance :   5.0000e-09
  Last Orbital Gradient      ...    2.2757e-06  Tolerance :   1.0000e-05
  Last Orbital Rotation      ...    1.7223e-05  Tolerance :   1.0000e-05

             **** THE GBW FILE WAS UPDATED (five_six_two_one_ten_eight_loss.gbw) ****
             **** DENSITY five_six_two_one_ten_eight_loss.scfp WAS UPDATED ****
             **** ENERGY FILE WAS UPDATED (five_six_two_one_ten_eight_loss.en.tmp) ****
             **** THE GBW FILE WAS UPDATED (five_six_two_one_ten_eight_loss.gbw) ****
             **** DENSITY five_six_two_one_ten_eight_loss.scfp WAS UPDATED ****
----------------
ORBITAL ENERGIES
----------------

  NO   OCC          E(Eh)            E(eV) 
   0   2.0000     -10.604494      -288.5629 
   1   2.0000     -10.599681      -288.4320 
   2   2.0000     -10.597603      -288.3754 
   3   2.0000     -10.597384      -288.3695 
   4   2.0000     -10.595675      -288.3230 
   5   2.0000     -10.591029      -288.1965 
   6   2.0000     -10.590400      -288.1794 
   7   2.0000     -10.590314      -288.1771 
   8   2.0000     -10.589776      -288.1625 
   9   2.0000     -10.587443      -288.0990 
  10   2.0000     -10.586344      -288.0691 
  11   2.0000     -10.585654      -288.0503 
  12   2.0000     -10.582049      -287.9522 
  13   2.0000     -10.581992      -287.9506 
  14   2.0000     -10.574715      -287.7526 
  15   2.0000     -10.571458      -287.6640 
  16   2.0000     -10.568914      -287.5948 
  17   2.0000     -10.567493      -287.5561 
  18   2.0000     -10.567422      -287.5542 
  19   2.0000     -10.566451      -287.5278 
  20   2.0000     -10.561882      -287.4034 
  21   2.0000     -10.560089      -287.3546 
  22   2.0000     -10.559284      -287.3327 
  23   2.0000     -10.557443      -287.2826 
  24   2.0000      -1.042976       -28.3808 
  25   2.0000      -1.005965       -27.3737 
  26   2.0000      -1.003011       -27.2933 
  27   2.0000      -0.954311       -25.9681 
  28   2.0000      -0.950915       -25.8757 
  29   2.0000      -0.927609       -25.2415 
  30   2.0000      -0.901203       -24.5230 
  31   2.0000      -0.881099       -23.9759 
  32   2.0000      -0.861546       -23.4439 
  33   2.0000      -0.852147       -23.1881 
  34   2.0000      -0.828176       -22.5358 
  35   2.0000      -0.822891       -22.3920 
  36   2.0000      -0.747763       -20.3477 
  37   2.0000      -0.740709       -20.1557 
  38   2.0000      -0.729147       -19.8411 
  39   2.0000      -0.719495       -19.5785 
  40   2.0000      -0.714629       -19.4460 
  41   2.0000      -0.663278       -18.0487 
  42   2.0000      -0.636900       -17.3309 
  43   2.0000      -0.622291       -16.9334 
  44   2.0000      -0.615086       -16.7374 
  45   2.0000      -0.602577       -16.3970 
  46   2.0000      -0.600813       -16.3490 
  47   2.0000      -0.561880       -15.2895 
  48   2.0000      -0.551058       -14.9950 
  49   2.0000      -0.549524       -14.9533 
  50   2.0000      -0.535695       -14.5770 
  51   2.0000      -0.532050       -14.4778 
  52   2.0000      -0.528382       -14.3780 
  53   2.0000      -0.518245       -14.1022 
  54   2.0000      -0.508752       -13.8438 
  55   2.0000      -0.491584       -13.3767 
  56   2.0000      -0.487966       -13.2782 
  57   2.0000      -0.486013       -13.2251 
  58   2.0000      -0.472739       -12.8639 
  59   2.0000      -0.463691       -12.6177 
  60   2.0000      -0.455192       -12.3864 
  61   2.0000      -0.431851       -11.7513 
  62   2.0000      -0.426048       -11.5933 
  63   2.0000      -0.425099       -11.5675 
  64   2.0000      -0.424743       -11.5578 
  65   2.0000      -0.404969       -11.0198 
  66   2.0000      -0.357191        -9.7197 
  67   2.0000      -0.347821        -9.4647 
  68   2.0000      -0.342697        -9.3252 
  69   2.0000      -0.338908        -9.2222 
  70   2.0000      -0.331349        -9.0165 
  71   2.0000      -0.326410        -8.8821 
  72   2.0000      -0.274762        -7.4766 
  73   2.0000      -0.270954        -7.3730 
  74   2.0000      -0.247600        -6.7376 
  75   0.0000      -0.156047        -4.2463 
  76   0.0000      -0.057620        -1.5679 
  77   0.0000      -0.052190        -1.4202 
  78   0.0000      -0.048612        -1.3228 
  79   0.0000      -0.046120        -1.2550 
  80   0.0000      -0.010269        -0.2794 
  81   0.0000      -0.000960        -0.0261 
  82   0.0000       0.005596         0.1523 
  83   0.0000       0.047951         1.3048 
  84   0.0000       0.085881         2.3369 
  85   0.0000       0.088705         2.4138 
  86   0.0000       0.090960         2.4752 
  87   0.0000       0.103138         2.8065 
  88   0.0000       0.112578         3.0634 
  89   0.0000       0.116274         3.1640 
  90   0.0000       0.116968         3.1829 
  91   0.0000       0.123518         3.3611 
  92   0.0000       0.123623         3.3639 
  93   0.0000       0.126598         3.4449 
  94   0.0000       0.130997         3.5646 
  95   0.0000       0.135920         3.6986 
  96   0.0000       0.168039         4.5726 
  97   0.0000       0.171432         4.6649 
  98   0.0000       0.175923         4.7871 
  99   0.0000       0.183631         4.9969 
 100   0.0000       0.187876         5.1124 
 101   0.0000       0.195352         5.3158 
 102   0.0000       0.195842         5.3291 
 103   0.0000       0.202114         5.4998 
 104   0.0000       0.202356         5.5064 
 105   0.0000       0.204327         5.5600 
 106   0.0000       0.218940         5.9577 
 107   0.0000       0.224197         6.1007 
 108   0.0000       0.224837         6.1181 
 109   0.0000       0.227369         6.1870 
 110   0.0000       0.234198         6.3729 
 111   0.0000       0.241750         6.5784 
 112   0.0000       0.248770         6.7694 
 113   0.0000       0.255876         6.9627 
 114   0.0000       0.256046         6.9674 
 115   0.0000       0.261122         7.1055 
 116   0.0000       0.263883         7.1806 
 117   0.0000       0.268922         7.3177 
 118   0.0000       0.272518         7.4156 
 119   0.0000       0.276066         7.5121 
 120   0.0000       0.278575         7.5804 
 121   0.0000       0.278610         7.5814 
 122   0.0000       0.286712         7.8018 
 123   0.0000       0.292463         7.9583 
 124   0.0000       0.297588         8.0978 
 125   0.0000       0.301793         8.2122 
 126   0.0000       0.309374         8.4185 
 127   0.0000       0.311263         8.4699 
 128   0.0000       0.314976         8.5709 
 129   0.0000       0.315478         8.5846 
 130   0.0000       0.318741         8.6734 
 131   0.0000       0.322137         8.7658 
 132   0.0000       0.322873         8.7858 
 133   0.0000       0.326984         8.8977 
 134   0.0000       0.335535         9.1304 
 135   0.0000       0.343188         9.3386 
 136   0.0000       0.349587         9.5128 
 137   0.0000       0.351499         9.5648 
 138   0.0000       0.357365         9.7244 
 139   0.0000       0.358566         9.7571 
 140   0.0000       0.362327         9.8594 
 141   0.0000       0.368260        10.0209 
 142   0.0000       0.373293        10.1578 
 143   0.0000       0.374363        10.1869 
 144   0.0000       0.374371        10.1871 
 145   0.0000       0.378920        10.3109 
 146   0.0000       0.381063        10.3692 
 147   0.0000       0.383435        10.4338 
 148   0.0000       0.387853        10.5540 
 149   0.0000       0.396750        10.7961 
 150   0.0000       0.398874        10.8539 
 151   0.0000       0.408527        11.1166 
 152   0.0000       0.410849        11.1798 
 153   0.0000       0.415623        11.3097 
 154   0.0000       0.418041        11.3755 
 155   0.0000       0.418394        11.3851 
 156   0.0000       0.429589        11.6897 
 157   0.0000       0.437241        11.8979 
 158   0.0000       0.447620        12.1804 
 159   0.0000       0.452412        12.3108 
 160   0.0000       0.454148        12.3580 
 161   0.0000       0.454993        12.3810 
 162   0.0000       0.466130        12.6840 
 163   0.0000       0.467800        12.7295 
 164   0.0000       0.469383        12.7726 
 165   0.0000       0.477452        12.9921 
 166   0.0000       0.489839        13.3292 
 167   0.0000       0.491113        13.3639 
 168   0.0000       0.494866        13.4660 
 169   0.0000       0.504223        13.7206 
 170   0.0000       0.508252        13.8302 
 171   0.0000       0.509332        13.8596 
 172   0.0000       0.511247        13.9117 
 173   0.0000       0.521000        14.1771 
 174   0.0000       0.535454        14.5704 
 175   0.0000       0.539782        14.6882 
 176   0.0000       0.540952        14.7200 
 177   0.0000       0.543946        14.8015 
 178   0.0000       0.544784        14.8243 
 179   0.0000       0.550701        14.9853 
 180   0.0000       0.555032        15.1032 
 181   0.0000       0.558612        15.2006 
 182   0.0000       0.561970        15.2920 
 183   0.0000       0.573608        15.6087 
 184   0.0000       0.579564        15.7707 
 185   0.0000       0.586205        15.9515 
 186   0.0000       0.594309        16.1720 
 187   0.0000       0.603823        16.4309 
 188   0.0000       0.623522        16.9669 
 189   0.0000       0.624135        16.9836 
 190   0.0000       0.624455        16.9923 
 191   0.0000       0.630873        17.1669 
 192   0.0000       0.631460        17.1829 
 193   0.0000       0.637621        17.3506 
 194   0.0000       0.641159        17.4468 
 195   0.0000       0.646673        17.5969 
 196   0.0000       0.652938        17.7674 
 197   0.0000       0.655045        17.8247 
 198   0.0000       0.657014        17.8783 
 199   0.0000       0.664744        18.0886 
 200   0.0000       0.671236        18.2653 
 201   0.0000       0.676729        18.4147 
 202   0.0000       0.684147        18.6166 
 203   0.0000       0.685052        18.6412 
 204   0.0000       0.689978        18.7753 
 205   0.0000       0.695848        18.9350 
 206   0.0000       0.702857        19.1257 
 207   0.0000       0.719108        19.5679 
 208   0.0000       0.721281        19.6270 
 209   0.0000       0.721873        19.6432 
 210   0.0000       0.723814        19.6960 
 211   0.0000       0.728014        19.8103 
 212   0.0000       0.740946        20.1622 
 213   0.0000       0.750005        20.4087 
 214   0.0000       0.760031        20.6815 
 215   0.0000       0.760273        20.6881 
 216   0.0000       0.761698        20.7269 
 217   0.0000       0.768629        20.9155 
 218   0.0000       0.771831        21.0026 
 219   0.0000       0.776169        21.1206 
 220   0.0000       0.786648        21.4058 
 221   0.0000       0.788661        21.4605 
 222   0.0000       0.790024        21.4976 
 223   0.0000       0.790803        21.5188 
 224   0.0000       0.794228        21.6120 
 225   0.0000       0.804938        21.9035 
 226   0.0000       0.810538        22.0559 
 227   0.0000       0.816528        22.2189 
 228   0.0000       0.818844        22.2819 
 229   0.0000       0.825929        22.4747 
 230   0.0000       0.831169        22.6173 
 231   0.0000       0.835016        22.7219 
 232   0.0000       0.847494        23.0615 
 233   0.0000       0.851496        23.1704 
 234   0.0000       0.858101        23.3501 
 235   0.0000       0.863201        23.4889 
 236   0.0000       0.865289        23.5457 
 237   0.0000       0.876059        23.8388 
 238   0.0000       0.878225        23.8977 
 239   0.0000       0.879637        23.9361 
 240   0.0000       0.889980        24.2176 
 241   0.0000       0.895334        24.3633 
 242   0.0000       0.899423        24.4745 
 243   0.0000       0.903675        24.5903 
 244   0.0000       0.907415        24.6920 
 245   0.0000       0.909360        24.7449 
 246   0.0000       0.910839        24.7852 
 247   0.0000       0.935215        25.4485 
 248   0.0000       0.945951        25.7406 
 249   0.0000       0.946796        25.7636 
 250   0.0000       0.951021        25.8786 
 251   0.0000       0.953108        25.9354 
 252   0.0000       0.967606        26.3299 
 253   0.0000       0.975614        26.5478 
 254   0.0000       0.991235        26.9729 
 255   0.0000       0.991244        26.9731 
 256   0.0000       1.000397        27.2222 
 257   0.0000       1.011767        27.5316 
 258   0.0000       1.020008        27.7558 
 259   0.0000       1.027575        27.9617 
 260   0.0000       1.046917        28.4881 
 261   0.0000       1.058507        28.8034 
 262   0.0000       1.059877        28.8407 
 263   0.0000       1.066569        29.0228 
 264   0.0000       1.069649        29.1066 
 265   0.0000       1.077841        29.3295 
 266   0.0000       1.084027        29.4979 
 267   0.0000       1.086754        29.5721 
 268   0.0000       1.090700        29.6794 
 269   0.0000       1.102223        29.9930 
 270   0.0000       1.109850        30.2006 
 271   0.0000       1.138546        30.9814 
 272   0.0000       1.145618        31.1739 
 273   0.0000       1.152245        31.3542 
 274   0.0000       1.157399        31.4944 
 275   0.0000       1.158344        31.5201 
 276   0.0000       1.189304        32.3626 
 277   0.0000       1.203776        32.7564 
 278   0.0000       1.205423        32.8012 
 279   0.0000       1.207160        32.8485 
 280   0.0000       1.214744        33.0549 
 281   0.0000       1.223241        33.2861 
 282   0.0000       1.229699        33.4618 
 283   0.0000       1.232064        33.5262 
 284   0.0000       1.237312        33.6690 
 285   0.0000       1.238297        33.6958 
 286   0.0000       1.241980        33.7960 
 287   0.0000       1.248146        33.9638 
 288   0.0000       1.249394        33.9977 
 289   0.0000       1.257631        34.2219 
 290   0.0000       1.258250        34.2387 
 291   0.0000       1.278826        34.7986 
 292   0.0000       1.290557        35.1178 
 293   0.0000       1.293875        35.2081 
 294   0.0000       1.305234        35.5172 
 295   0.0000       1.305661        35.5288 
 296   0.0000       1.310011        35.6472 
 297   0.0000       1.312316        35.7099 
 298   0.0000       1.313292        35.7365 
 299   0.0000       1.325762        36.0758 
 300   0.0000       1.340685        36.4819 
 301   0.0000       1.348175        36.6857 
 302   0.0000       1.352481        36.8029 
 303   0.0000       1.358807        36.9750 
 304   0.0000       1.367166        37.2025 
 305   0.0000       1.371130        37.3104 
 306   0.0000       1.378313        37.5058 
 307   0.0000       1.383249        37.6401 
 308   0.0000       1.400238        38.1024 
 309   0.0000       1.408451        38.3259 
 310   0.0000       1.416751        38.5517 
 311   0.0000       1.417671        38.5768 
 312   0.0000       1.423095        38.7244 
 313   0.0000       1.423469        38.7346 
 314   0.0000       1.428972        38.8843 
 315   0.0000       1.433177        38.9987 
 316   0.0000       1.438690        39.1487 
 317   0.0000       1.444566        39.3086 
 318   0.0000       1.458009        39.6744 
 319   0.0000       1.472438        40.0671 
 320   0.0000       1.476877        40.1879 
 321   0.0000       1.486129        40.4396 
 322   0.0000       1.499191        40.7951 
 323   0.0000       1.508960        41.0609 
 324   0.0000       1.528393        41.5897 
 325   0.0000       1.529563        41.6215 
 326   0.0000       1.531093        41.6632 
 327   0.0000       1.535018        41.7700 
 328   0.0000       1.535247        41.7762 
 329   0.0000       1.545298        42.0497 
 330   0.0000       1.556391        42.3516 
 331   0.0000       1.569727        42.7144 
 332   0.0000       1.577232        42.9187 
 333   0.0000       1.577269        42.9197 
 334   0.0000       1.578375        42.9498 
 335   0.0000       1.585456        43.1424 
 336   0.0000       1.586186        43.1623 
 337   0.0000       1.599634        43.5282 
 338   0.0000       1.611966        43.8638 
 339   0.0000       1.617057        44.0024 
 340   0.0000       1.619100        44.0579 
 341   0.0000       1.637519        44.5592 
 342   0.0000       1.642183        44.6861 
 343   0.0000       1.645029        44.7635 
 344   0.0000       1.650253        44.9057 
 345   0.0000       1.654025        45.0083 
 346   0.0000       1.655233        45.0412 
 347   0.0000       1.661123        45.2014 
 348   0.0000       1.662748        45.2457 
 349   0.0000       1.668560        45.4038 
 350   0.0000       1.684436        45.8358 
 351   0.0000       1.698668        46.2231 
 352   0.0000       1.703580        46.3568 
 353   0.0000       1.709338        46.5135 
 354   0.0000       1.712856        46.6092 
 355   0.0000       1.723808        46.9072 
 356   0.0000       1.732921        47.1552 
 357   0.0000       1.738305        47.3017 
 358   0.0000       1.745520        47.4980 
 359   0.0000       1.752876        47.6982 
 360   0.0000       1.761105        47.9221 
 361   0.0000       1.763490        47.9870 
 362   0.0000       1.776422        48.3389 
 363   0.0000       1.783386        48.5284 
 364   0.0000       1.794837        48.8400 
 365   0.0000       1.807493        49.1844 
 366   0.0000       1.828418        49.7538 
 367   0.0000       1.829157        49.7739 
 368   0.0000       1.844691        50.1966 
 369   0.0000       1.858769        50.5797 
 370   0.0000       1.880197        51.1628 
 371   0.0000       1.891296        51.4648 
 372   0.0000       1.894091        51.5408 
 373   0.0000       1.903147        51.7873 
 374   0.0000       1.913233        52.0617 
 375   0.0000       1.914685        52.1012 
 376   0.0000       1.920680        52.2644 
 377   0.0000       1.934444        52.6389 
 378   0.0000       1.953085        53.1461 
 379   0.0000       1.961351        53.3711 
 380   0.0000       1.974343        53.7246 
 381   0.0000       1.980895        53.9029 
 382   0.0000       1.992327        54.2140 
 383   0.0000       2.001984        54.4768 
 384   0.0000       2.016529        54.8725 
 385   0.0000       2.017168        54.8899 
 386   0.0000       2.019495        54.9532 
 387   0.0000       2.035308        55.3835 
 388   0.0000       2.036589        55.4184 
 389   0.0000       2.049699        55.7751 
 390   0.0000       2.070567        56.3430 
 391   0.0000       2.071269        56.3621 
 392   0.0000       2.083635        56.6986 
 393   0.0000       2.110451        57.4283 
 394   0.0000       2.127667        57.8968 
 395   0.0000       2.131061        57.9891 
 396   0.0000       2.134904        58.0937 
 397   0.0000       2.150973        58.5309 
 398   0.0000       2.152862        58.5823 
 399   0.0000       2.153710        58.6054 
 400   0.0000       2.158734        58.7421 
 401   0.0000       2.168909        59.0190 
 402   0.0000       2.186768        59.5050 
 403   0.0000       2.207089        60.0579 
 404   0.0000       2.218794        60.3764 
 405   0.0000       2.222751        60.4841 
 406   0.0000       2.233238        60.7695 
 407   0.0000       2.233478        60.7760 
 408   0.0000       2.238262        60.9062 
 409   0.0000       2.241998        61.0079 
 410   0.0000       2.248642        61.1886 
 411   0.0000       2.254696        61.3534 
 412   0.0000       2.264340        61.6158 
 413   0.0000       2.278704        62.0067 
 414   0.0000       2.283583        62.1395 
 415   0.0000       2.285760        62.1987 
 416   0.0000       2.289008        62.2871 
 417   0.0000       2.294733        62.4428 
 418   0.0000       2.309078        62.8332 
 419   0.0000       2.321743        63.1778 
 420   0.0000       2.334275        63.5188 
 421   0.0000       2.340884        63.6987 
 422   0.0000       2.348071        63.8943 
 423   0.0000       2.363521        64.3147 
 424   0.0000       2.384873        64.8957 
 425   0.0000       2.399879        65.3040 
 426   0.0000       2.405967        65.4697 
 427   0.0000       2.429680        66.1150 
 428   0.0000       2.441571        66.4385 
 429   0.0000       2.448126        66.6169 
 430   0.0000       2.450323        66.6767 
 431   0.0000       2.465081        67.0783 
 432   0.0000       2.479604        67.4735 
 433   0.0000       2.482747        67.5590 
 434   0.0000       2.514632        68.4266 
 435   0.0000       2.518105        68.5211 
 436   0.0000       2.529819        68.8399 
 437   0.0000       2.530326        68.8537 
 438   0.0000       2.549585        69.3777 
 439   0.0000       2.566785        69.8458 
 440   0.0000       2.574364        70.0520 
 441   0.0000       2.574841        70.0650 
 442   0.0000       2.597460        70.6805 
 443   0.0000       2.598346        70.7046 
 444   0.0000       2.614152        71.1347 
 445   0.0000       2.617546        71.2271 
 446   0.0000       2.618603        71.2558 
 447   0.0000       2.626145        71.4610 
 448   0.0000       2.626883        71.4811 
 449   0.0000       2.640257        71.8451 
 450   0.0000       2.642615        71.9092 
 451   0.0000       2.646068        72.0032 
 452   0.0000       2.653665        72.2099 
 453   0.0000       2.663123        72.4673 
 454   0.0000       2.665802        72.5401 
 455   0.0000       2.673394        72.7468 
 456   0.0000       2.691492        73.2392 
 457   0.0000       2.693715        73.2997 
 458   0.0000       2.707790        73.6827 
 459   0.0000       2.709786        73.7370 
 460   0.0000       2.716433        73.9179 
 461   0.0000       2.718467        73.9733 
 462   0.0000       2.735154        74.4273 
 463   0.0000       2.735326        74.4320 
 464   0.0000       2.740736        74.5792 
 465   0.0000       2.754705        74.9593 
 466   0.0000       2.756628        75.0117 
[...]
|  sn= 3 | S(rot)=       0.38923205 Eh    244.25 kcal/mol|
|  sn= 4 | S(rot)=       0.38376587 Eh    240.82 kcal/mol|
|  sn= 5 | S(rot)=       0.37952596 Eh    238.16 kcal/mol|
|  sn= 6 | S(rot)=       0.37606171 Eh    235.98 kcal/mol|
|  sn= 7 | S(rot)=       0.37313272 Eh    234.14 kcal/mol|
|  sn= 8 | S(rot)=       0.37059552 Eh    232.55 kcal/mol|
|  sn= 9 | S(rot)=       0.36835755 Eh    231.15 kcal/mol|
|  sn=10 | S(rot)=       0.36635562 Eh    229.89 kcal/mol|
|  sn=11 | S(rot)=       0.36454465 Eh    228.75 kcal/mol|
|  sn=12 | S(rot)=       0.36289136 Eh    227.72 kcal/mol|
 --------------------------------------------------------


-------------------
GIBBS FREE ENERGY
-------------------

The Gibbs free energy is G = H - T*S

Total enthalpy                    ...   -916.06827664 Eh 
Total entropy correction          ...     -5.10376955 Eh  -3202.66 kcal/mol
-----------------------------------------------------------------------
Final Gibbs free energy         ...   -921.17204619 Eh

For completeness - the Gibbs free energy minus the electronic energy
G-E(el)                           ...     -3.41846144 Eh  -2145.11 kcal/mol


The first frequency considered to be a vibration is 6
The total number of vibrations considered is 84


--------------------------
THERMOCHEMISTRY AT 8000.00K
--------------------------

Temperature         ... 8000.00 K
Pressure            ... 1.00 atm
Total Mass          ... 294.31 AMU

Throughout the following assumptions are being made:
  (1) The electronic state is orbitally nondegenerate
  (2) There are no thermally accessible electronically excited states
  (3) Hindered rotations indicated by low frequency modes are not
      treated as such but are treated as vibrations and this may
      cause some error
  (4) All equations used are the standard statistical mechanics
      equations for an ideal gas
  (5) All vibrations are strictly harmonic

freq.      78.26  E(vib)   ...      15.79 
freq.      87.62  E(vib)   ...      15.77 
freq.     123.20  E(vib)   ...      15.72 
freq.     164.41  E(vib)   ...      15.66 
freq.     227.93  E(vib)   ...      15.57 
freq.     254.27  E(vib)   ...      15.54 
freq.     278.13  E(vib)   ...      15.50 
freq.     297.78  E(vib)   ...      15.48 
freq.     305.89  E(vib)   ...      15.46 
freq.     346.91  E(vib)   ...      15.41 
freq.     350.26  E(vib)   ...      15.40 
freq.     362.15  E(vib)   ...      15.39 
freq.     377.38  E(vib)   ...      15.36 
freq.     391.47  E(vib)   ...      15.34 
freq.     396.43  E(vib)   ...      15.34 
freq.     404.66  E(vib)   ...      15.33 
freq.     446.02  E(vib)   ...      15.27 
freq.     452.03  E(vib)   ...      15.26 
freq.     466.62  E(vib)   ...      15.24 
freq.     479.36  E(vib)   ...      15.22 
freq.     490.31  E(vib)   ...      15.21 
freq.     501.97  E(vib)   ...      15.19 
freq.     509.15  E(vib)   ...      15.18 
freq.     515.66  E(vib)   ...      15.17 
freq.     530.87  E(vib)   ...      15.15 
freq.     571.94  E(vib)   ...      15.09 
freq.     574.38  E(vib)   ...      15.09 
freq.     605.04  E(vib)   ...      15.05 
freq.     610.18  E(vib)   ...      15.04 
freq.     658.38  E(vib)   ...      14.98 
freq.     679.66  E(vib)   ...      14.95 
freq.     682.42  E(vib)   ...      14.94 
freq.     695.19  E(vib)   ...      14.92 
freq.     722.17  E(vib)   ...      14.89 
freq.     732.68  E(vib)   ...      14.87 
freq.     806.32  E(vib)   ...      14.77 
freq.     818.90  E(vib)   ...      14.76 
freq.     834.16  E(vib)   ...      14.74 
freq.     851.72  E(vib)   ...      14.71 
freq.     854.12  E(vib)   ...      14.71 
freq.     856.37  E(vib)   ...      14.71 
freq.     870.84  E(vib)   ...      14.69 
freq.     874.23  E(vib)   ...      14.68 
freq.     894.18  E(vib)   ...      14.65 
freq.     986.97  E(vib)   ...      14.53 
freq.     993.76  E(vib)   ...      14.52 
freq.     995.41  E(vib)   ...      14.52 
freq.    1005.41  E(vib)   ...      14.50 
freq.    1069.96  E(vib)   ...      14.42 
freq.    1120.64  E(vib)   ...      14.35 
freq.    1138.87  E(vib)   ...      14.33 
freq.    1168.61  E(vib)   ...      14.29 
freq.    1185.43  E(vib)   ...      14.26 
freq.    1208.74  E(vib)   ...      14.23 
freq.    1236.86  E(vib)   ...      14.20 
freq.    1242.72  E(vib)   ...      14.19 
freq.    1253.25  E(vib)   ...      14.17 
freq.    1263.65  E(vib)   ...      14.16 
freq.    1294.36  E(vib)   ...      14.12 
freq.    1314.37  E(vib)   ...      14.09 
freq.    1331.69  E(vib)   ...      14.07 
freq.    1370.78  E(vib)   ...      14.02 
freq.    1380.24  E(vib)   ...      14.01 
freq.    1384.46  E(vib)   ...      14.00 
freq.    1414.34  E(vib)   ...      13.96 
freq.    1426.78  E(vib)   ...      13.95 
freq.    1446.28  E(vib)   ...      13.92 
freq.    1461.96  E(vib)   ...      13.90 
freq.    1488.00  E(vib)   ...      13.87 
freq.    1531.15  E(vib)   ...      13.81 
freq.    1598.79  E(vib)   ...      13.72 
freq.    1605.47  E(vib)   ...      13.71 
freq.    1619.42  E(vib)   ...      13.70 
freq.    1652.83  E(vib)   ...      13.65 
freq.    1708.24  E(vib)   ...      13.58 
freq.    1822.86  E(vib)   ...      13.43 
freq.    2140.07  E(vib)   ...      13.03 
freq.    2156.50  E(vib)   ...      13.01 
freq.    3211.96  E(vib)   ...      11.75 
freq.    3231.42  E(vib)   ...      11.72 
freq.    3231.63  E(vib)   ...      11.72 
freq.    3245.76  E(vib)   ...      11.71 
freq.    3246.03  E(vib)   ...      11.71 
freq.    3347.31  E(vib)   ...      11.59 

------------
INNER ENERGY
------------

The inner energy is: U= E(el) + E(ZPE) + E(vib) + E(rot) + E(trans)
    E(el)   - is the total energy from the electronic structure calculation
              = E(kin-el) + E(nuc-el) + E(el-el) + E(nuc-nuc)
    E(ZPE)  - the the zero temperature vibrational energy from the frequency calculation
    E(vib)  - the the finite temperature correction to E(ZPE) due to population
              of excited vibrational states
    E(rot)  - is the rotational thermal energy
    E(trans)- is the translational thermal energy

Summary of contributions to the inner energy U:
Electronic energy                ...   -917.75358475 Eh
Zero point energy                ...      0.20404307 Eh     128.04 kcal/mol
Thermal vibrational correction   ...      1.93402526 Eh    1213.62 kcal/mol
Thermal rotational correction    ...      0.03800158 Eh      23.85 kcal/mol
Thermal translational correction ...      0.03800158 Eh      23.85 kcal/mol
-----------------------------------------------------------------------
Total thermal energy                   -915.53951326 Eh


Summary of corrections to the electronic energy:
(perhaps to be used in another calculation)
Total thermal correction                  2.01002842 Eh    1261.31 kcal/mol
Non-thermal (ZPE) correction              0.20404307 Eh     128.04 kcal/mol
-----------------------------------------------------------------------
Total correction                          2.21407149 Eh    1389.35 kcal/mol


--------
ENTHALPY
--------

The enthalpy is H = U + kB*T
                kB is Boltzmann's constant
Total free energy                 ...   -915.53951326 Eh 
Thermal Enthalpy correction       ...      0.02533514 Eh      15.90 kcal/mol
-----------------------------------------------------------------------
Total Enthalpy                    ...   -915.51417812 Eh


Note: Rotational entropy computed according to Herzberg 
Infrared and Raman Spectra, Chapter V,1, Van Nostrand Reinhold, 1945 
Point Group:  Cs, Symmetry Number:   1  
Rotational constants in cm-1:     0.011986     0.011592     0.005893 

Vibrational entropy computed according to the QRRHO of S. Grimme
Chem.Eur.J. 2012 18 9955


-------
ENTROPY
-------

The entropy contributions are T*S = T*(S(el)+S(vib)+S(rot)+S(trans))
     S(el)   - electronic entropy
     S(vib)  - vibrational entropy
     S(rot)  - rotational entropy
     S(trans)- translational entropy
The entropies will be listed as multiplied by the temperature to get
units of energy

Electronic entropy                ...      0.00000000 Eh      0.00 kcal/mol
Vibrational entropy               ...      6.12203496 Eh   3841.63 kcal/mol
Rotational entropy                ...      0.55774111 Eh    349.99 kcal/mol
Translational entropy             ...      0.75572723 Eh    474.22 kcal/mol
-----------------------------------------------------------------------
Final entropy term                ...      7.43550330 Eh   4665.84 kcal/mol

In case the symmetry of your molecule has not been determined correctly
or in case you have a reason to use a different symmetry number we print 
out the resulting rotational entropy values for sn=1,12 :
 --------------------------------------------------------
|  sn= 1 | S(rot)=       0.55774111 Eh    349.99 kcal/mol|
|  sn= 2 | S(rot)=       0.54018065 Eh    338.97 kcal/mol|
|  sn= 3 | S(rot)=       0.52990844 Eh    332.52 kcal/mol|
|  sn= 4 | S(rot)=       0.52262019 Eh    327.95 kcal/mol|
|  sn= 5 | S(rot)=       0.51696699 Eh    324.40 kcal/mol|
|  sn= 6 | S(rot)=       0.51234798 Eh    321.50 kcal/mol|
|  sn= 7 | S(rot)=       0.50844267 Eh    319.05 kcal/mol|
|  sn= 8 | S(rot)=       0.50505974 Eh    316.93 kcal/mol|
|  sn= 9 | S(rot)=       0.50207577 Eh    315.06 kcal/mol|
|  sn=10 | S(rot)=       0.49940653 Eh    313.38 kcal/mol|
|  sn=11 | S(rot)=       0.49699191 Eh    311.87 kcal/mol|
|  sn=12 | S(rot)=       0.49478753 Eh    310.48 kcal/mol|
 --------------------------------------------------------


-------------------
GIBBS FREE ENERGY
-------------------

The Gibbs free energy is G = H - T*S

Total enthalpy                    ...   -915.51417812 Eh 
Total entropy correction          ...     -7.43550330 Eh  -4665.84 kcal/mol
-----------------------------------------------------------------------
Final Gibbs free energy         ...   -922.94968142 Eh

For completeness - the Gibbs free energy minus the electronic energy
G-E(el)                           ...     -5.19609667 Eh  -3260.59 kcal/mol


The first frequency considered to be a vibration is 6
The total number of vibrations considered is 84


--------------------------
THERMOCHEMISTRY AT 10000.00K
--------------------------

Temperature         ... 10000.00 K
Pressure            ... 1.00 atm
Total Mass          ... 294.31 AMU

Throughout the following assumptions are being made:
  (1) The electronic state is orbitally nondegenerate
  (2) There are no thermally accessible electronically excited states
  (3) Hindered rotations indicated by low frequency modes are not
      treated as such but are treated as vibrations and this may
      cause some error
  (4) All equations used are the standard statistical mechanics
      equations for an ideal gas
  (5) All vibrations are strictly harmonic

freq.      78.26  E(vib)   ...      19.76 
freq.      87.62  E(vib)   ...      19.75 
freq.     123.20  E(vib)   ...      19.70 
freq.     164.41  E(vib)   ...      19.64 
freq.     227.93  E(vib)   ...      19.55 
freq.     254.27  E(vib)   ...      19.51 
freq.     278.13  E(vib)   ...      19.48 
freq.     297.78  E(vib)   ...      19.45 
freq.     305.89  E(vib)   ...      19.44 
freq.     346.91  E(vib)   ...      19.38 
freq.     350.26  E(vib)   ...      19.38 
freq.     362.15  E(vib)   ...      19.36 
freq.     377.38  E(vib)   ...      19.34 
freq.     391.47  E(vib)   ...      19.32 
freq.     396.43  E(vib)   ...      19.31 
freq.     404.66  E(vib)   ...      19.30 
freq.     446.02  E(vib)   ...      19.24 
freq.     452.03  E(vib)   ...      19.23 
freq.     466.62  E(vib)   ...      19.21 
freq.     479.36  E(vib)   ...      19.20 
freq.     490.31  E(vib)   ...      19.18 
freq.     501.97  E(vib)   ...      19.16 
freq.     509.15  E(vib)   ...      19.15 
freq.     515.66  E(vib)   ...      19.14 
freq.     530.87  E(vib)   ...      19.12 
freq.     571.94  E(vib)   ...      19.07 
freq.     574.38  E(vib)   ...      19.06 
freq.     605.04  E(vib)   ...      19.02 
freq.     610.18  E(vib)   ...      19.01 
freq.     658.38  E(vib)   ...      18.95 
freq.     679.66  E(vib)   ...      18.92 
freq.     682.42  E(vib)   ...      18.91 
freq.     695.19  E(vib)   ...      18.90 
freq.     722.17  E(vib)   ...      18.86 
freq.     732.68  E(vib)   ...      18.84 
freq.     806.32  E(vib)   ...      18.74 
freq.     818.90  E(vib)   ...      18.72 
freq.     834.16  E(vib)   ...      18.70 
freq.     851.72  E(vib)   ...      18.68 
freq.     854.12  E(vib)   ...      18.68 
freq.     856.37  E(vib)   ...      18.67 
freq.     870.84  E(vib)   ...      18.65 
freq.     874.23  E(vib)   ...      18.65 
freq.     894.18  E(vib)   ...      18.62 
freq.     986.97  E(vib)   ...      18.49 
freq.     993.76  E(vib)   ...      18.49 
freq.     995.41  E(vib)   ...      18.48 
freq.    1005.41  E(vib)   ...      18.47 
freq.    1069.96  E(vib)   ...      18.38 
freq.    1120.64  E(vib)   ...      18.31 
freq.    1138.87  E(vib)   ...      18.29 
freq.    1168.61  E(vib)   ...      18.25 
freq.    1185.43  E(vib)   ...      18.23 
freq.    1208.74  E(vib)   ...      18.19 
freq.    1236.86  E(vib)   ...      18.16 
freq.    1242.72  E(vib)   ...      18.15 
freq.    1253.25  E(vib)   ...      18.13 
freq.    1263.65  E(vib)   ...      18.12 
freq.    1294.36  E(vib)   ...      18.08 
freq.    1314.37  E(vib)   ...      18.05 
freq.    1331.69  E(vib)   ...      18.03 
freq.    1370.78  E(vib)   ...      17.98 
freq.    1380.24  E(vib)   ...      17.96 
freq.    1384.46  E(vib)   ...      17.96 
freq.    1414.34  E(vib)   ...      17.92 
freq.    1426.78  E(vib)   ...      17.90 
freq.    1446.28  E(vib)   ...      17.88 
freq.    1461.96  E(vib)   ...      17.86 
freq.    1488.00  E(vib)   ...      17.82 
freq.    1531.15  E(vib)   ...      17.76 
freq.    1598.79  E(vib)   ...      17.67 
freq.    1605.47  E(vib)   ...      17.67 
freq.    1619.42  E(vib)   ...      17.65 
freq.    1652.83  E(vib)   ...      17.60 
freq.    1708.24  E(vib)   ...      17.53 
freq.    1822.86  E(vib)   ...      17.38 
freq.    2140.07  E(vib)   ...      16.97 
freq.    2156.50  E(vib)   ...      16.95 
freq.    3211.96  E(vib)   ...      15.63 
freq.    3231.42  E(vib)   ...      15.61 
freq.    3231.63  E(vib)   ...      15.61 
freq.    3245.76  E(vib)   ...      15.59 
freq.    3246.03  E(vib)   ...      15.59 
freq.    3347.31  E(vib)   ...      15.47 

------------
INNER ENERGY
------------

The inner energy is: U= E(el) + E(ZPE) + E(vib) + E(rot) + E(trans)
    E(el)   - is the total energy from the electronic structure calculation
              = E(kin-el) + E(nuc-el) + E(el-el) + E(nuc-nuc)
    E(ZPE)  - the the zero temperature vibrational energy from the frequency calculation
    E(vib)  - the the finite temperature correction to E(ZPE) due to population
              of excited vibrational states
    E(rot)  - is the rotational thermal energy
    E(trans)- is the translational thermal energy

Summary of contributions to the inner energy U:
Electronic energy                ...   -917.75358475 Eh
Zero point energy                ...      0.20404307 Eh     128.04 kcal/mol
Thermal vibrational correction   ...      2.46408874 Eh    1546.24 kcal/mol
Thermal rotational correction    ...      0.04750198 Eh      29.81 kcal/mol
Thermal translational correction ...      0.04750198 Eh      29.81 kcal/mol
-----------------------------------------------------------------------
Total thermal energy                   -914.99044899 Eh


Summary of corrections to the electronic energy:
(perhaps to be used in another calculation)
Total thermal correction                  2.55909269 Eh    1605.85 kcal/mol
Non-thermal (ZPE) correction              0.20404307 Eh     128.04 kcal/mol
-----------------------------------------------------------------------
Total correction                          2.76313577 Eh    1733.89 kcal/mol


--------
ENTHALPY
--------

The enthalpy is H = U + kB*T
                kB is Boltzmann's constant
Total free energy                 ...   -914.99044899 Eh 
Thermal Enthalpy correction       ...      0.03166893 Eh      19.87 kcal/mol
-----------------------------------------------------------------------
Total Enthalpy                    ...   -914.95878006 Eh


Note: Rotational entropy computed according to Herzberg 
Infrared and Raman Spectra, Chapter V,1, Van Nostrand Reinhold, 1945 
Point Group:  Cs, Symmetry Number:   1  
Rotational constants in cm-1:     0.011986     0.011592     0.005893 

Vibrational entropy computed according to the QRRHO of S. Grimme
Chem.Eur.J. 2012 18 9955


-------
ENTROPY
-------

The entropy contributions are T*S = T*(S(el)+S(vib)+S(rot)+S(trans))
     S(el)   - electronic entropy
     S(vib)  - vibrational entropy
     S(rot)  - rotational entropy
     S(trans)- translational entropy
The entropies will be listed as multiplied by the temperature to get
units of energy

Electronic entropy                ...      0.00000000 Eh      0.00 kcal/mol
Vibrational entropy               ...      8.23705408 Eh   5168.82 kcal/mol
Rotational entropy                ...      0.70777615 Eh    444.14 kcal/mol
Translational entropy             ...      0.96232531 Eh    603.87 kcal/mol
-----------------------------------------------------------------------
Final entropy term                ...      9.90715554 Eh   6216.82 kcal/mol

In case the symmetry of your molecule has not been determined correctly
or in case you have a reason to use a different symmetry number we print 
out the resulting rotational entropy values for sn=1,12 :
 --------------------------------------------------------
|  sn= 1 | S(rot)=       0.70777615 Eh    444.14 kcal/mol|
|  sn= 2 | S(rot)=       0.68582558 Eh    430.36 kcal/mol|
|  sn= 3 | S(rot)=       0.67298531 Eh    422.30 kcal/mol|
|  sn= 4 | S(rot)=       0.66387500 Eh    416.59 kcal/mol|
|  sn= 5 | S(rot)=       0.65680850 Eh    412.15 kcal/mol|
|  sn= 6 | S(rot)=       0.65103474 Eh    408.53 kcal/mol|
|  sn= 7 | S(rot)=       0.64615310 Eh    405.47 kcal/mol|
|  sn= 8 | S(rot)=       0.64192443 Eh    402.81 kcal/mol|
|  sn= 9 | S(rot)=       0.63819448 Eh    400.47 kcal/mol|
|  sn=10 | S(rot)=       0.63485792 Eh    398.38 kcal/mol|
|  sn=11 | S(rot)=       0.63183964 Eh    396.48 kcal/mol|
|  sn=12 | S(rot)=       0.62908417 Eh    394.76 kcal/mol|
 --------------------------------------------------------


-------------------
GIBBS FREE ENERGY
-------------------

The Gibbs free energy is G = H - T*S

Total enthalpy                    ...   -914.95878006 Eh 
Total entropy correction          ...     -9.90715554 Eh  -6216.82 kcal/mol
-----------------------------------------------------------------------
Final Gibbs free energy         ...   -924.86593560 Eh

For completeness - the Gibbs free energy minus the electronic energy
G-E(el)                           ...     -7.11235085 Eh  -4463.06 kcal/mol


Timings for individual modules:

Sum of individual times         ...    18949.394 sec (= 315.823 min)
GTO integral calculation        ...       46.265 sec (=   0.771 min)   0.2 %
SCF iterations                  ...     5915.998 sec (=  98.600 min)  31.2 %
SCF Gradient evaluation         ...     1353.286 sec (=  22.555 min)   7.1 %
Geometry relaxation             ...        3.401 sec (=   0.057 min)   0.0 %
Analytical frequency calculation...    11630.444 sec (= 193.841 min)  61.4 %
                             ****ORCA TERMINATED NORMALLY****
TOTAL RUN TIME: 0 days 5 hours 16 minutes 4 seconds 596 msec
