
                                 *****************
                                 * O   R   C   A *
                                 *****************

                                            #,                                       
                                            ###                                      
                                            ####                                     
                                            #####                                    
                                            ######                                   
                                           ########,                                 
                                     ,,################,,,,,                         
                               ,,#################################,,                 
                          ,,##########################################,,             
                       ,#########################################, ''#####,          
                    ,#############################################,,   '####,        
                  ,##################################################,,,,####,       
                ,###########''''           ''''###############################       
              ,#####''   ,,,,##########,,,,          '''####'''          '####       
            ,##' ,,,,###########################,,,                        '##       
           ' ,,###''''                  '''############,,,                           
         ,,##''                                '''############,,,,        ,,,,,,###''
      ,#''                                            '''#######################'''  
     '                                                          ''''####''''         
             ,#######,   #######,   ,#######,      ##                                
            ,#'     '#,  ##    ##  ,#'     '#,    #''#        ######   ,####,        
            ##       ##  ##   ,#'  ##            #'  '#       #        #'  '#        
            ##       ##  #######   ##           ,######,      #####,   #    #        
            '#,     ,#'  ##    ##  '#,     ,#' ,#      #,         ##   #,  ,#        
             '#######'   ##     ##  '#######'  #'      '#     #####' # '####'        



                  #######################################################
                  #                        -***-                        #
                  #          Department of theory and spectroscopy      #
                  #    Directorship and core code : Frank Neese         #
                  #        Max Planck Institute fuer Kohlenforschung    #
                  #                Kaiser Wilhelm Platz 1               #
                  #                 D-45470 Muelheim/Ruhr               #
                  #                      Germany                        #
                  #                                                     #
                  #                  All rights reserved                #
                  #                        -***-                        #
                  #######################################################



                         Program Version 5.0.4 -  RELEASE  -

 With contributions from (in alphabetic order):
   Daniel Aravena         : Magnetic Suceptibility
   Michael Atanasov       : Ab Initio Ligand Field Theory (pilot matlab implementation)
   Alexander A. Auer      : GIAO ZORA, VPT2 properties, NMR spectrum
   Ute Becker             : Parallelization
   Giovanni Bistoni       : ED, misc. LED, open-shell LED, HFLD
   Martin Brehm           : Molecular dynamics
   Dmytro Bykov           : SCF Hessian
   Vijay G. Chilkuri      : MRCI spin determinant printing, contributions to CSF-ICE
   Dipayan Datta          : RHF DLPNO-CCSD density
   Achintya Kumar Dutta   : EOM-CC, STEOM-CC
   Dmitry Ganyushin       : Spin-Orbit,Spin-Spin,Magnetic field MRCI
   Miquel Garcia          : C-PCM and meta-GGA Hessian, CC/C-PCM, Gaussian charge scheme
   Yang Guo               : DLPNO-NEVPT2, F12-NEVPT2, CIM, IAO-localization
   Andreas Hansen         : Spin unrestricted coupled pair/coupled cluster methods
   Benjamin Helmich-Paris : MC-RPA, TRAH-SCF, COSX integrals
   Lee Huntington         : MR-EOM, pCC
   Robert Izsak           : Overlap fitted RIJCOSX, COSX-SCS-MP3, EOM
   Marcus Kettner         : VPT2
   Christian Kollmar      : KDIIS, OOCD, Brueckner-CCSD(T), CCSD density, CASPT2, CASPT2-K
   Simone Kossmann        : Meta GGA functionals, TD-DFT gradient, OOMP2, MP2 Hessian
   Martin Krupicka        : Initial AUTO-CI
   Lucas Lang             : DCDCAS
   Marvin Lechner         : AUTO-CI (C++ implementation), FIC-MRCC
   Dagmar Lenk            : GEPOL surface, SMD
   Dimitrios Liakos       : Extrapolation schemes; Compound Job, initial MDCI parallelization
   Dimitrios Manganas     : Further ROCIS development; embedding schemes
   Dimitrios Pantazis     : SARC Basis sets
   Anastasios Papadopoulos: AUTO-CI, single reference methods and gradients
   Taras Petrenko         : DFT Hessian,TD-DFT gradient, ASA, ECA, R-Raman, ABS, FL, XAS/XES, NRVS
   Peter Pinski           : DLPNO-MP2, DLPNO-MP2 Gradient
   Christoph Reimann      : Effective Core Potentials
   Marius Retegan         : Local ZFS, SOC
   Christoph Riplinger    : Optimizer, TS searches, QM/MM, DLPNO-CCSD(T), (RO)-DLPNO pert. Triples
   Tobias Risthaus        : Range-separated hybrids, TD-DFT gradient, RPA, STAB
   Michael Roemelt        : Original ROCIS implementation
   Masaaki Saitow         : Open-shell DLPNO-CCSD energy and density
   Barbara Sandhoefer     : DKH picture change effects
   Avijit Sen             : IP-ROCIS
   Kantharuban Sivalingam : CASSCF convergence, NEVPT2, FIC-MRCI
   Bernardo de Souza      : ESD, SOC TD-DFT
   Georgi Stoychev        : AutoAux, RI-MP2 NMR, DLPNO-MP2 response
   Willem Van den Heuvel  : Paramagnetic NMR
   Boris Wezisla          : Elementary symmetry handling
   Frank Wennmohs         : Technical directorship


 We gratefully acknowledge several colleagues who have allowed us to
 interface, adapt or use parts of their codes:
   Stefan Grimme, W. Hujo, H. Kruse, P. Pracht,  : VdW corrections, initial TS optimization,
                  C. Bannwarth, S. Ehlert          DFT functionals, gCP, sTDA/sTD-DF
   Ed Valeev, F. Pavosevic, A. Kumar             : LibInt (2-el integral package), F12 methods
   Garnet Chan, S. Sharma, J. Yang, R. Olivares  : DMRG
   Ulf Ekstrom                                   : XCFun DFT Library
   Mihaly Kallay                                 : mrcc  (arbitrary order and MRCC methods)
   Jiri Pittner, Ondrej Demel                    : Mk-CCSD
   Frank Weinhold                                : gennbo (NPA and NBO analysis)
   Christopher J. Cramer and Donald G. Truhlar   : smd solvation model
   Lars Goerigk                                  : TD-DFT with DH, B97 family of functionals
   V. Asgeirsson, H. Jonsson                     : NEB implementation
   FAccTs GmbH                                   : IRC, NEB, NEB-TS, DLPNO-Multilevel, CI-OPT
                                                   MM, QMMM, 2- and 3-layer-ONIOM, Crystal-QMMM,
                                                   LR-CPCM, SF, NACMEs, symmetry and pop. for TD-DFT,
                                                   nearIR, NL-DFT gradient (VV10), updates on ESD,
                                                   ML-optimized integration grids
   S Lehtola, MJT Oliveira, MAL Marques          : LibXC Library
   Liviu Ungur et al                             : ANISO software


 Your calculation uses the libint2 library for the computation of 2-el integrals
 For citations please refer to: http://libint.valeyev.net

 Your ORCA version has been built with support for libXC version: 5.1.0
 For citations please refer to: https://tddft.org/programs/libxc/

 This ORCA versions uses:
   CBLAS   interface :  Fast vector & matrix operations
   LAPACKE interface :  Fast linear algebra routines
   Shared memory     :  Shared parallel matrices


XCFun DFT library Copyright 2009-2010 Ulf Ekstrom and contributors.
See http://admol.org/xcfun for more information.
This is free software; see the source code for copying conditions.
There is ABSOLUTELY NO WARRANTY; not even for MERCHANTABILITY or FITNESS FOR A PARTICULAR PURPOSE.
For details see the documentation.
Scientific users of this library should cite U. Ekstrom, L. Visscher, R. Bast, A. J. Thorvaldsen and K. Ruud;
J.Chem.Theor.Comp. 2010, DOI: 10.1021/ct100117s
XCFun Version 0.99 

================================================================================

----- Orbital basis set information -----
Your calculation utilizes the basis: def2-TZVP
   F. Weigend and R. Ahlrichs, Phys. Chem. Chem. Phys. 7, 3297 (2005).

----- AuxJ basis set information -----
Your calculation utilizes the auxiliary basis: def2/J
   F. Weigend, Phys. Chem. Chem. Phys. 8, 1057 (2006).

================================================================================
                                        WARNINGS
                       Please study these warnings very carefully!
================================================================================


WARNING: Geometry Optimization
  ===> : Switching off AutoStart
         For restart on a previous wavefunction, please use MOREAD

INFO   : the flag for use of the SHARK integral package has been found!

================================================================================
                                       INPUT FILE
================================================================================
NAME = again_eight_seven.inp
|  1> !M062X def2-tzvp PAL4 TIGHTOPT FREQ defgrid3 verytightscf
|  2> 
|  3> %freq
|  4> Temp 298.15,10,20,50,100,6000,8000,10000
|  5> end
|  6> 
|  7> %geom
|  8> maxiter 6000
|  9> end
| 10> 
| 11> 
| 12> 
| 13> * xyz 0 1
| 14>   C   2.45024767781397     -2.79088845422407     -0.00000938991726
| 15>   C   1.27956267261532     -3.48658808767447     -0.00004199041518
| 16>   C   0.03020310625919     -2.81550732119018     -0.00011789062906
| 17>   C   -1.20108929293839     -3.52527633478020     -0.00015283044576
| 18>   C   -2.38858597622182     -2.86504893637874     -0.00022498731516
| 19>   C   -2.44108197261203     -1.44399840937901     -0.00026977722794
| 20>   C   -3.67664815488274     -0.75323846120680     -0.00034508171349
| 21>   C   -3.72619103513175      0.61011442158688     -0.00038695503160
| 22>   C   -2.53310385205262      1.35934451234726     -0.00035606001250
| 23>   C   -2.34752598708266      2.75390994650057     -0.00038920673762
| 24>   C   -1.29670621365080      3.37860291890169     -0.00036230773715
| 25>   C   0.01683951893005      2.87466311961114     -0.00029133231447
| 26>   C   1.24551381641079      3.56424109354326     -0.00025979444256
| 27>   C   2.41912619307901      2.86884590764749     -0.00018732290336
| 28>   C   2.43516507628830      1.45349356601676     -0.00014257265195
| 29>   C   3.65823793814160      0.72790757912234     -0.00006413468989
| 30>   C   3.67028527219667     -0.63084086543001     -0.00002138690896
| 31>   C   2.45820052906728     -1.37288152517845     -0.00005316837364
| 32>   C   1.23136984515361     -0.68204197678717     -0.00012966191552
| 33>   C   1.21554524887866      0.74294181053525     -0.00017432075702
| 34>   C   -0.02154995620554      1.44515622172209     -0.00024986159180
| 35>   C   -1.25909884296142      0.70968573654380     -0.00028126057904
| 36>   C   -1.23394295940125     -0.71246465284663     -0.00023766649264
| 37>   C   0.01011894540401     -1.40778721810258     -0.00016257370372
| 38>   H   3.39881580580318     -3.31417954221239      0.00004974485595
| 39>   H   1.28573635923110     -4.56988777799178     -0.00000784587274
| 40>   H   -1.17447994529076     -4.60821534800633     -0.00011914167385
| 41>   H   -3.32210856630241     -3.41462105732816     -0.00025074935228
| 42>   H   -4.59259219317491     -1.33148181218652     -0.00036964131605
| 43>   H   -4.67219547496003      1.13375240591159     -0.00044538469848
| 44>   H   1.23804129197342      4.64547385631899     -0.00029312160517
| 45>   H   3.36486881829754      3.39701007763111     -0.00016209932451
| 46>   H   4.58719661221870      1.28514520034098     -0.00003968006642
| 47>   H   4.60870298987178     -1.17199696838782      0.00003992508645
| 48>   **                         ****END OF INPUT****
================================================================================

                       *****************************
                       * Geometry Optimization Run *
                       *****************************

Geometry optimization settings:
Update method            Update   .... BFGS
Choice of coordinates    CoordSys .... Z-matrix Internals
Initial Hessian          InHess   .... Almoef's Model

Convergence Tolerances:
Energy Change            TolE     ....  1.0000e-06 Eh
Max. Gradient            TolMAXG  ....  1.0000e-04 Eh/bohr
RMS Gradient             TolRMSG  ....  3.0000e-05 Eh/bohr
Max. Displacement        TolMAXD  ....  1.0000e-03 bohr
RMS Displacement         TolRMSD  ....  6.0000e-04 bohr
Strict Convergence                ....  False
------------------------------------------------------------------------------
                        ORCA OPTIMIZATION COORDINATE SETUP
------------------------------------------------------------------------------

The optimization will be done in new redundant internal coordinates
Making redundant internal coordinates   ...  (new redundants) done
Evaluating the initial hessian          ...  (Almloef) done
Evaluating the coordinates              ...  done
Calculating the B-matrix                .... done
Calculating the G-matrix                .... done
Diagonalizing the G-matrix              .... done
The first mode is                       ....  125
The number of degrees of freedom        ....   96

    -----------------------------------------------------------------
                    Redundant Internal Coordinates


    -----------------------------------------------------------------
         Definition                    Initial Value    Approx d2E/dq
    -----------------------------------------------------------------
      1. B(C   1,C   0)                  1.3618         0.692993   
      2. B(C   2,C   1)                  1.4182         0.563341   
      3. B(C   3,C   2)                  1.4212         0.557104   
      4. B(C   4,C   3)                  1.3587         0.700948   
      5. B(C   5,C   4)                  1.4220         0.555460   
      6. B(C   6,C   5)                  1.4155         0.568827   
      7. B(C   7,C   6)                  1.3643         0.686778   
      8. B(C   8,C   7)                  1.4088         0.583037   
      9. B(C   9,C   8)                  1.4069         0.587275   
     10. B(C  10,C   9)                  1.2225         1.156118   
     11. B(C  11,C  10)                  1.4069         0.587194   
     12. B(C  12,C  11)                  1.4090         0.582767   
     13. B(C  13,C  12)                  1.3642         0.687005   
     14. B(C  14,C  13)                  1.4154         0.569044   
     15. B(C  15,C  14)                  1.4221         0.555287   
     16. B(C  16,C  15)                  1.3588         0.700669   
     17. B(C  17,C  16)                  1.4212         0.557161   
     18. B(C  17,C   0)                  1.4180         0.563663   
     19. B(C  18,C  17)                  1.4080         0.584888   
     20. B(C  19,C  18)                  1.4251         0.549268   
     21. B(C  19,C  14)                  1.4115         0.577329   
     22. B(C  20,C  19)                  1.4225         0.554479   
     23. B(C  20,C  11)                  1.4300         0.539368   
     24. B(C  21,C  20)                  1.4396         0.520723   
     25. B(C  21,C   8)                  1.4301         0.539243   
     26. B(C  22,C  21)                  1.4224         0.554740   
     27. B(C  22,C   5)                  1.4115         0.577351   
     28. B(C  23,C  22)                  1.4252         0.549031   
     29. B(C  23,C  18)                  1.4206         0.558325   
     30. B(C  23,C   2)                  1.4079         0.585112   
     31. B(H  24,C   0)                  1.0833         0.369026   
     32. B(H  25,C   1)                  1.0833         0.369050   
     33. B(H  26,C   3)                  1.0833         0.369119   
     34. B(H  27,C   4)                  1.0833         0.369101   
     35. B(H  28,C   6)                  1.0832         0.369211   
     36. B(H  29,C   7)                  1.0813         0.371851   
     37. B(H  30,C  12)                  1.0813         0.371851   
     38. B(H  31,C  13)                  1.0832         0.369169   
     39. B(H  32,C  15)                  1.0833         0.369111   
     40. B(H  33,C  16)                  1.0833         0.369111   
     41. A(C   1,C   0,C  17)          121.0430         0.435321   
     42. A(C   1,C   0,H  24)          120.3944         0.361146   
     43. A(C  17,C   0,H  24)          118.5626         0.348715   
     44. A(C   0,C   1,C   2)          121.0364         0.435276   
     45. A(C   2,C   1,H  25)          118.5685         0.348685   
     46. A(C   0,C   1,H  25)          120.3951         0.361150   
     47. A(C   3,C   2,C  23)          119.1436         0.421426   
     48. A(C   1,C   2,C  23)          119.0594         0.422264   
     49. A(C   1,C   2,C   3)          121.7970         0.418585   
     50. A(C   2,C   3,H  26)          118.5534         0.348043   
     51. A(C   4,C   3,H  26)          120.4808         0.361865   
     52. A(C   2,C   3,C   4)          120.9657         0.435298   
     53. A(C   5,C   4,H  27)          118.3700         0.347867   
     54. A(C   3,C   4,H  27)          120.4410         0.361862   
     55. A(C   3,C   4,C   5)          121.1889         0.435066   
     56. A(C   4,C   5,C   6)          121.3236         0.419088   
     57. A(C   6,C   5,C  22)          119.5759         0.421988   
     58. A(C   4,C   5,C  22)          119.1005         0.420201   
     59. A(C   5,C   6,H  28)          118.5275         0.349281   
     60. A(C   5,C   6,C   7)          121.2891         0.435330   
     61. A(C   7,C   6,H  28)          120.1834         0.360622   
     62. A(C   6,C   7,C   8)          120.0467         0.437269   
     63. A(C   6,C   7,H  29)          121.0468         0.361061   
     64. A(C   8,C   7,H  29)          118.9065         0.351161   
     65. A(C   7,C   8,C   9)          129.7078         0.425147   
     66. A(C   9,C   8,C  21)          109.4387         0.419259   
     67. A(C   7,C   8,C  21)          120.8536         0.418718   
     68. A(C   8,C   9,C  10)          128.3106         0.481483   
     69. A(C   9,C  10,C  11)          128.2801         0.481471   
     70. A(C  12,C  11,C  20)          120.8411         0.418700   
     71. A(C  10,C  11,C  20)          109.4509         0.419266   
     72. A(C  10,C  11,C  12)          129.7080         0.425102   
     73. A(C  11,C  12,H  30)          118.9068         0.351134   
     74. A(C  11,C  12,C  13)          120.0494         0.437259   
     75. A(C  13,C  12,H  30)          121.0438         0.361081   
     76. A(C  12,C  13,H  31)          120.1703         0.360635   
     77. A(C  12,C  13,C  14)          121.2971         0.435385   
     78. A(C  14,C  13,H  31)          118.5326         0.349297   
     79. A(C  13,C  14,C  15)          121.3277         0.419093   
     80. A(C  15,C  14,C  19)          119.0964         0.420175   
     81. A(C  13,C  14,C  19)          119.5759         0.422014   
     82. A(C  14,C  15,C  16)          121.1865         0.435011   
     83. A(C  16,C  15,H  32)          120.4495         0.361839   
     84. A(C  14,C  15,H  32)          118.3640         0.347850   
     85. A(C  17,C  16,H  33)          118.5542         0.348047   
     86. A(C  15,C  16,C  17)          120.9671         0.435275   
     87. A(C  15,C  16,H  33)          120.4787         0.361839   
     88. A(C  16,C  17,C  18)          119.1407         0.421405   
     89. A(C   0,C  17,C  18)          119.0629         0.422279   
     90. A(C   0,C  17,C  16)          121.7964         0.418635   
     91. A(C  17,C  18,C  19)          120.0205         0.420333   
     92. A(C  19,C  18,C  23)          120.0852         0.416865   
     93. A(C  17,C  18,C  23)          119.8943         0.421562   
     94. A(C  18,C  19,C  20)          120.2169         0.416353   
     95. A(C  14,C  19,C  20)          120.1943         0.420066   
     96. A(C  14,C  19,C  18)          119.5889         0.419359   
     97. A(C  11,C  20,C  19)          118.0423         0.415008   
     98. A(C  19,C  20,C  21)          119.6965         0.412423   
     99. A(C  11,C  20,C  21)          122.2612         0.410406   
    100. A(C  20,C  21,C  22)          119.7095         0.412457   
    101. A(C   8,C  21,C  22)          118.0320         0.415026   
    102. A(C   8,C  21,C  20)          122.2586         0.410389   
    103. A(C  21,C  22,C  23)          120.2148         0.416356   
    104. A(C   5,C  22,C  23)          119.5825         0.419329   
    105. A(C   5,C  22,C  21)          120.2027         0.420104   
    106. A(C  18,C  23,C  22)          120.0771         0.416833   
    107. A(C   2,C  23,C  22)          120.0188         0.420329   
    108. A(C   2,C  23,C  18)          119.9041         0.421590   
    109. D(H  25,C   1,C   0,C  17)   -180.0000         0.033767   
    110. D(H  25,C   1,C   0,H  24)      0.0001         0.033767   
    111. D(C   2,C   1,C   0,C  17)     -0.0001         0.033767   
    112. D(C   2,C   1,C   0,H  24)    179.9999         0.033767   
    113. D(C  23,C   2,C   1,H  25)    180.0000         0.021748   
    114. D(C   3,C   2,C   1,H  25)     -0.0001         0.021748   
    115. D(C  23,C   2,C   1,C   0)      0.0001         0.021748   
    116. D(C   3,C   2,C   1,C   0)    180.0000         0.021748   
    117. D(H  26,C   3,C   2,C   1)      0.0001         0.021251   
    118. D(C   4,C   3,C   2,C  23)     -0.0002         0.021251   
    119. D(H  26,C   3,C   2,C  23)    179.9999         0.021251   
    120. D(C   4,C   3,C   2,C   1)    180.0000         0.021251   
    121. D(H  27,C   4,C   3,C   2)   -180.0000         0.034612   
    122. D(C   5,C   4,C   3,H  26)    180.0000         0.034612   
    123. D(C   5,C   4,C   3,C   2)      0.0001         0.034612   
    124. D(H  27,C   4,C   3,H  26)     -0.0001         0.034612   
    125. D(C   6,C   5,C   4,H  27)      0.0001         0.021121   
    126. D(C  22,C   5,C   4,H  27)   -180.0000         0.021121   
    127. D(C  22,C   5,C   4,C   3)     -0.0000         0.021121   
    128. D(C   6,C   5,C   4,C   3)    180.0000         0.021121   
    129. D(H  28,C   6,C   5,C   4)     -0.0001         0.022192   
    130. D(H  28,C   6,C   5,C  22)    179.9999         0.022192   
    131. D(C   7,C   6,C   5,C  22)     -0.0000         0.022192   
    132. D(C   7,C   6,C   5,C   4)    179.9999         0.022192   
    133. D(H  29,C   7,C   6,H  28)     -0.0000         0.033115   
    134. D(H  29,C   7,C   6,C   5)    179.9999         0.033115   
    135. D(C   8,C   7,C   6,H  28)   -179.9999         0.033115   
    136. D(C   8,C   7,C   6,C   5)      0.0000         0.033115   
    137. D(C  21,C   8,C   7,C   6)      0.0000         0.023366   
    138. D(C   9,C   8,C   7,H  29)      0.0000         0.023366   
    139. D(C   9,C   8,C   7,C   6)    180.0000         0.023366   
    140. D(C  21,C   8,C   7,H  29)   -179.9999         0.023366   
    141. D(C  10,C   9,C   8,C  21)      0.0000         0.021530   
    142. D(C  10,C   9,C   8,C   7)   -179.9999         0.021530   
    143. D(C  11,C  10,C   9,C   8)      0.0000         0.085008   
    144. D(C  20,C  11,C  10,C   9)     -0.0001         0.021524   
    145. D(C  12,C  11,C  10,C   9)    179.9999         0.021524   
    146. D(H  30,C  12,C  11,C  20)    180.0000         0.023343   
    147. D(H  30,C  12,C  11,C  10)     -0.0000         0.023343   
    148. D(C  13,C  12,C  11,C  20)     -0.0001         0.023343   
    149. D(C  13,C  12,C  11,C  10)    179.9999         0.023343   
    150. D(H  31,C  13,C  12,H  30)      0.0000         0.033139   
    151. D(H  31,C  13,C  12,C  11)   -179.9999         0.033139   
    152. D(C  14,C  13,C  12,H  30)    180.0000         0.033139   
    153. D(C  14,C  13,C  12,C  11)      0.0000         0.033139   
    154. D(C  19,C  14,C  13,H  31)   -180.0000         0.022209   
    155. D(C  19,C  14,C  13,C  12)      0.0000         0.022209   
    156. D(C  15,C  14,C  13,H  31)      0.0001         0.022209   
    157. D(C  15,C  14,C  13,C  12)   -179.9999         0.022209   
    158. D(H  32,C  15,C  14,C  19)   -180.0000         0.021108   
    159. D(H  32,C  15,C  14,C  13)     -0.0000         0.021108   
    160. D(C  16,C  15,C  14,C  19)      0.0001         0.021108   
    161. D(C  16,C  15,C  14,C  13)   -180.0000         0.021108   
    162. D(H  33,C  16,C  15,H  32)      0.0001         0.034582   
    163. D(H  33,C  16,C  15,C  14)   -179.9999         0.034582   
    164. D(C  17,C  16,C  15,H  32)   -180.0000         0.034582   
    165. D(C  17,C  16,C  15,C  14)     -0.0000         0.034582   
    166. D(C   0,C  17,C  16,C  15)   -180.0000         0.021256   
    167. D(C  18,C  17,C   0,H  24)   -180.0000         0.021774   
    168. D(C  18,C  17,C   0,C   1)      0.0001         0.021774   
    169. D(C  16,C  17,C   0,H  24)     -0.0000         0.021774   
    170. D(C   0,C  17,C  16,H  33)     -0.0001         0.021256   
    171. D(C  16,C  17,C   0,C   1)   -179.9999         0.021774   
    172. D(C  18,C  17,C  16,H  33)    179.9999         0.021256   
    173. D(C  18,C  17,C  16,C  15)     -0.0000         0.021256   
    174. D(C  23,C  18,C  17,C  16)    180.0000         0.023522   
    175. D(C  23,C  18,C  17,C   0)     -0.0000         0.023522   
    176. D(C  19,C  18,C  17,C  16)      0.0000         0.023522   
    177. D(C  19,C  18,C  17,C   0)    180.0000         0.023522   
    178. D(C  20,C  19,C  18,C  23)      0.0001         0.020637   
    179. D(C  20,C  19,C  18,C  17)   -179.9999         0.020637   
    180. D(C  14,C  19,C  18,C  23)   -179.9999         0.020637   
    181. D(C  14,C  19,C  18,C  17)      0.0001         0.020637   
    182. D(C  20,C  19,C  14,C  15)    179.9999         0.022890   
    183. D(C  20,C  19,C  14,C  13)     -0.0000         0.022890   
    184. D(C  18,C  19,C  14,C  15)     -0.0001         0.022890   
    185. D(C  18,C  19,C  14,C  13)    180.0000         0.022890   
    186. D(C  21,C  20,C  19,C  18)     -0.0000         0.021044   
    187. D(C  21,C  20,C  19,C  14)   -180.0000         0.021044   
    188. D(C  11,C  20,C  19,C  18)    180.0000         0.021044   
    189. D(C  11,C  20,C  19,C  14)     -0.0000         0.021044   
    190. D(C  21,C  20,C  11,C  12)   -180.0000         0.019877   
    191. D(C  21,C  20,C  11,C  10)      0.0000         0.019877   
    192. D(C  19,C  20,C  11,C  12)      0.0001         0.019877   
    193. D(C  19,C  20,C  11,C  10)   -179.9999         0.019877   
    194. D(C  22,C  21,C  20,C  19)     -0.0001         0.018493   
    195. D(C  22,C  21,C  20,C  11)    180.0000         0.018493   
    196. D(C   8,C  21,C  20,C  19)    180.0000         0.018493   
    197. D(C   8,C  21,C  20,C  11)      0.0000         0.018493   
    198. D(C  22,C  21,C   8,C   9)    180.0000         0.019867   
    199. D(C  22,C  21,C   8,C   7)     -0.0001         0.019867   
    200. D(C  20,C  21,C   8,C   9)     -0.0000         0.019867   
    201. D(C  20,C  21,C   8,C   7)    179.9999         0.019867   
    202. D(C  23,C  22,C  21,C  20)      0.0000         0.021065   
    203. D(C  23,C  22,C  21,C   8)   -180.0000         0.021065   
    204. D(C   5,C  22,C  21,C  20)   -179.9999         0.021065   
    205. D(C   5,C  22,C  21,C   8)      0.0001         0.021065   
    206. D(C  23,C  22,C   5,C   6)   -180.0000         0.022892   
    207. D(C  23,C  22,C   5,C   4)      0.0001         0.022892   
    208. D(C  21,C  22,C   5,C   6)     -0.0000         0.022892   
    209. D(C  21,C  22,C   5,C   4)   -180.0000         0.022892   
    210. D(C  18,C  23,C  22,C  21)      0.0001         0.020618   
    211. D(C  18,C  23,C  22,C   5)   -180.0000         0.020618   
    212. D(C   2,C  23,C  22,C   5)     -0.0001         0.020618   
    213. D(C  22,C  23,C  18,C  19)     -0.0001         0.021348   
    214. D(C  22,C  23,C  18,C  17)    179.9999         0.021348   
    215. D(C   2,C  23,C  18,C  19)   -180.0000         0.021348   
    216. D(C   2,C  23,C  18,C  17)      0.0000         0.021348   
    217. D(C  22,C  23,C   2,C   3)      0.0002         0.023541   
    218. D(C   2,C  23,C  22,C  21)    179.9999         0.020618   
    219. D(C  22,C  23,C   2,C   1)   -179.9999         0.023541   
    220. D(C  18,C  23,C   2,C   3)   -180.0000         0.023541   
    221. D(C  18,C  23,C   2,C   1)     -0.0001         0.023541   
    -----------------------------------------------------------------

Number of atoms                         .... 34
Number of degrees of freedom            .... 221

         *************************************************************
         *                GEOMETRY OPTIMIZATION CYCLE   1            *
         *************************************************************
---------------------------------
CARTESIAN COORDINATES (ANGSTROEM)
---------------------------------
  C      2.450248   -2.790888   -0.000009
  C      1.279563   -3.486588   -0.000042
  C      0.030203   -2.815507   -0.000118
  C     -1.201089   -3.525276   -0.000153
  C     -2.388586   -2.865049   -0.000225
  C     -2.441082   -1.443998   -0.000270
  C     -3.676648   -0.753238   -0.000345
  C     -3.726191    0.610114   -0.000387
  C     -2.533104    1.359345   -0.000356
  C     -2.347526    2.753910   -0.000389
  C     -1.296706    3.378603   -0.000362
  C      0.016840    2.874663   -0.000291
  C      1.245514    3.564241   -0.000260
  C      2.419126    2.868846   -0.000187
  C      2.435165    1.453494   -0.000143
  C      3.658238    0.727908   -0.000064
  C      3.670285   -0.630841   -0.000021
  C      2.458201   -1.372882   -0.000053
  C      1.231370   -0.682042   -0.000130
  C      1.215545    0.742942   -0.000174
  C     -0.021550    1.445156   -0.000250
  C     -1.259099    0.709686   -0.000281
  C     -1.233943   -0.712465   -0.000238
  C      0.010119   -1.407787   -0.000163
  H      3.398816   -3.314180    0.000050
  H      1.285736   -4.569888   -0.000008
  H     -1.174480   -4.608215   -0.000119
  H     -3.322109   -3.414621   -0.000251
  H     -4.592592   -1.331482   -0.000370
  H     -4.672195    1.133752   -0.000445
  H      1.238041    4.645474   -0.000293
  H      3.364869    3.397010   -0.000162
  H      4.587197    1.285145   -0.000040
  H      4.608703   -1.171997    0.000040

----------------------------
CARTESIAN COORDINATES (A.U.)
----------------------------
  NO LB      ZA    FRAG     MASS         X           Y           Z
   0 C     6.0000    0    12.011    4.630297   -5.274015   -0.000018
   1 C     6.0000    0    12.011    2.418023   -6.588697   -0.000079
   2 C     6.0000    0    12.011    0.057076   -5.320538   -0.000223
   3 C     6.0000    0    12.011   -2.269730   -6.661807   -0.000289
   4 C     6.0000    0    12.011   -4.513773   -5.414158   -0.000425
   5 C     6.0000    0    12.011   -4.612976   -2.728762   -0.000510
   6 C     6.0000    0    12.011   -6.947858   -1.423414   -0.000652
   7 C     6.0000    0    12.011   -7.041481    1.152949   -0.000731
   8 C     6.0000    0    12.011   -4.786873    2.568789   -0.000673
   9 C     6.0000    0    12.011   -4.436181    5.204136   -0.000735
  10 C     6.0000    0    12.011   -2.450420    6.384634   -0.000685
  11 C     6.0000    0    12.011    0.031822    5.432326   -0.000551
  12 C     6.0000    0    12.011    2.353680    6.735440   -0.000491
  13 C     6.0000    0    12.011    4.571486    5.421333   -0.000354
  14 C     6.0000    0    12.011    4.601795    2.746705   -0.000269
  15 C     6.0000    0    12.011    6.913068    1.375546   -0.000121
  16 C     6.0000    0    12.011    6.935834   -1.192116   -0.000040
  17 C     6.0000    0    12.011    4.645326   -2.594370   -0.000100
  18 C     6.0000    0    12.011    2.326952   -1.288873   -0.000245
  19 C     6.0000    0    12.011    2.297048    1.403957   -0.000329
  20 C     6.0000    0    12.011   -0.040724    2.730949   -0.000472
  21 C     6.0000    0    12.011   -2.379352    1.341112   -0.000532
  22 C     6.0000    0    12.011   -2.331814   -1.346363   -0.000449
  23 C     6.0000    0    12.011    0.019122   -2.660332   -0.000307
  24 H     1.0000    0     1.008    6.422831   -6.262892    0.000094
  25 H     1.0000    0     1.008    2.429690   -8.635836   -0.000015
  26 H     1.0000    0     1.008   -2.219445   -8.708265   -0.000225
  27 H     1.0000    0     1.008   -6.277875   -6.452699   -0.000474
  28 H     1.0000    0     1.008   -8.678741   -2.516136   -0.000699
  29 H     1.0000    0     1.008   -8.829170    2.142482   -0.000842
  30 H     1.0000    0     1.008    2.339559    8.778673   -0.000554
  31 H     1.0000    0     1.008    6.358681    6.419419   -0.000306
  32 H     1.0000    0     1.008    8.668545    2.428572   -0.000075
  33 H     1.0000    0     1.008    8.709186   -2.214753    0.000075

--------------------------------
INTERNAL COORDINATES (ANGSTROEM)
--------------------------------
 C      0   0   0     0.000000000000     0.00000000     0.00000000
 C      1   0   0     1.361800779278     0.00000000     0.00000000
 C      2   1   0     1.418185011538   121.03635952     0.00000000
 C      3   2   1     1.421215334211   121.79701688   180.00000000
 C      4   3   2     1.358693709272   120.96573845   179.99996874
 C      5   4   3     1.422019842312   121.18893479     0.00000000
 C      6   5   4     1.415546926965   121.32360260   179.99999481
 C      7   6   5     1.364252755819   121.28911776   179.99994782
 C      8   7   6     1.408830279446   120.04667824     0.00000000
 C      9   8   7     1.406858875368   129.70777516   179.99996024
 C     10   9   8     1.222482517963   128.31064373   180.00008106
 C     11  10   9     1.406896484439   128.28006353     0.00000000
 C     12  11  10     1.408956462215   129.70799577   179.99994178
 C     13  12  11     1.364162923000   120.04940967   179.99991760
 C     14  13  12     1.415443216359   121.29707265     0.00000000
 C     15  14  13     1.422104868121   121.32772068   180.00013606
 C     16  15  14     1.358801852979   121.18646756   180.00000283
 C      1   2   3     1.418029231215   121.04296290     0.00000000
 C     18   1   2     1.407967618401   119.06291995     0.00000000
 C     15  14  13     1.411508526944   119.57586886     0.00000000
 C     20  15  14     1.422501188550   120.19426231     0.00000000
 C      9   8   7     1.430085764478   120.85357469     0.00000000
 C      6   5   4     1.411497869355   119.10048345     0.00000000
 C      3   2   1     1.407863368424   119.05940826     0.00000000
 H      1   2   3     1.083335155758   120.39442601   179.99993210
 H      2   1   3     1.083317282523   120.39510145   180.00014477
 H      4   3   2     1.083265879129   118.55341182     0.00000000
 H      5   4   3     1.083279254384   120.44104774   180.00002455
 H      7   6   5     1.083198437424   118.52746769     0.00000000
 H      8   7   6     1.081259054166   121.04682069   179.99994275
 H     13  12  11     1.081258584721   118.90679869     0.00000000
 H     14  13  12     1.083229663666   120.17034934   180.00005300
 H     16  15  14     1.083271888882   118.36401527     0.00000000
 H     17  16  15     1.083271777706   120.47870144   180.00009898

---------------------------
INTERNAL COORDINATES (A.U.)
---------------------------
 C      0   0   0     0.000000000000     0.00000000     0.00000000
 C      1   0   0     2.573430521796     0.00000000     0.00000000
 C      2   1   0     2.679981279039   121.03635952     0.00000000
 C      3   2   1     2.685707758987   121.79701688   180.00000000
 C      4   3   2     2.567559010406   120.96573845   179.99996874
 C      5   4   3     2.687228058972   121.18893479     0.00000000
 C      6   5   4     2.674996021678   121.32360260   179.99999481
 C      7   6   5     2.578064085944   121.28911776   179.99994782
 C      8   7   6     2.662303397328   120.04667824     0.00000000
 C      9   8   7     2.658577983521   129.70777516   179.99996024
 C     10   9   8     2.310157162457   128.31064373   180.00008106
 C     11  10   9     2.658649054367   128.28006353     0.00000000
 C     12  11  10     2.662541848204   129.70799577   179.99994178
 C     13  12  11     2.577894326520   120.04940967   179.99991760
 C     14  13  12     2.674800037035   121.29707265     0.00000000
 C     15  14  13     2.687388734464   121.32772068   180.00013606
 C     16  15  14     2.567763372395   121.18646756   180.00000283
 C      1   2   3     2.679686896892   121.04296290     0.00000000
 C     18   1   2     2.660673204207   119.06291995     0.00000000
 C     15  14  13     2.667364551619   119.57586886     0.00000000
 C     20  15  14     2.688137671538   120.19426231     0.00000000
 C      9   8   7     2.702470442883   120.85357469     0.00000000
 C      6   5   4     2.667344411694   119.10048345     0.00000000
 C      3   2   1     2.660476200302   119.05940826     0.00000000
 H      1   2   3     2.047206755632   120.39442601   179.99993210
 H      2   1   3     2.047172980113   120.39510145   180.00014477
 H      4   3   2     2.047075841775   118.55341182     0.00000000
 H      5   4   3     2.047101117345   120.44104774   180.00002455
 H      7   6   5     2.046948395423   118.52746769     0.00000000
 H      8   7   6     2.043283492197   121.04682069   179.99994275
 H     13  12  11     2.043282605073   118.90679869     0.00000000
 H     14  13  12     2.047007404468   120.17034934   180.00005300
 H     16  15  14     2.047087198563   118.36401527     0.00000000
 H     17  16  15     2.047086988470   120.47870144   180.00009898

---------------------
BASIS SET INFORMATION
---------------------
There are 2 groups of distinct atoms

 Group   1 Type C   : 11s6p2d1f contracted to 5s3p2d1f pattern {62111/411/11/1}
 Group   2 Type H   : 5s1p contracted to 3s1p pattern {311/1}

Atom   0C    basis set group =>   1
Atom   1C    basis set group =>   1
Atom   2C    basis set group =>   1
Atom   3C    basis set group =>   1
Atom   4C    basis set group =>   1
Atom   5C    basis set group =>   1
Atom   6C    basis set group =>   1
Atom   7C    basis set group =>   1
Atom   8C    basis set group =>   1
Atom   9C    basis set group =>   1
Atom  10C    basis set group =>   1
Atom  11C    basis set group =>   1
Atom  12C    basis set group =>   1
Atom  13C    basis set group =>   1
Atom  14C    basis set group =>   1
Atom  15C    basis set group =>   1
Atom  16C    basis set group =>   1
Atom  17C    basis set group =>   1
Atom  18C    basis set group =>   1
Atom  19C    basis set group =>   1
Atom  20C    basis set group =>   1
Atom  21C    basis set group =>   1
Atom  22C    basis set group =>   1
Atom  23C    basis set group =>   1
Atom  24H    basis set group =>   2
Atom  25H    basis set group =>   2
Atom  26H    basis set group =>   2
Atom  27H    basis set group =>   2
Atom  28H    basis set group =>   2
Atom  29H    basis set group =>   2
Atom  30H    basis set group =>   2
Atom  31H    basis set group =>   2
Atom  32H    basis set group =>   2
Atom  33H    basis set group =>   2
---------------------------------
AUXILIARY/J BASIS SET INFORMATION
---------------------------------
There are 2 groups of distinct atoms

 Group   1 Type C   : 12s5p4d2f1g contracted to 6s4p3d1f1g pattern {711111/2111/211/2/1}
 Group   2 Type H   : 5s2p1d contracted to 3s1p1d pattern {311/2/1}

Atom   0C    basis set group =>   1
Atom   1C    basis set group =>   1
Atom   2C    basis set group =>   1
Atom   3C    basis set group =>   1
Atom   4C    basis set group =>   1
Atom   5C    basis set group =>   1
Atom   6C    basis set group =>   1
Atom   7C    basis set group =>   1
Atom   8C    basis set group =>   1
Atom   9C    basis set group =>   1
Atom  10C    basis set group =>   1
Atom  11C    basis set group =>   1
Atom  12C    basis set group =>   1
Atom  13C    basis set group =>   1
Atom  14C    basis set group =>   1
Atom  15C    basis set group =>   1
Atom  16C    basis set group =>   1
Atom  17C    basis set group =>   1
Atom  18C    basis set group =>   1
Atom  19C    basis set group =>   1
Atom  20C    basis set group =>   1
Atom  21C    basis set group =>   1
Atom  22C    basis set group =>   1
Atom  23C    basis set group =>   1
Atom  24H    basis set group =>   2
Atom  25H    basis set group =>   2
Atom  26H    basis set group =>   2
Atom  27H    basis set group =>   2
Atom  28H    basis set group =>   2
Atom  29H    basis set group =>   2
Atom  30H    basis set group =>   2
Atom  31H    basis set group =>   2
Atom  32H    basis set group =>   2
Atom  33H    basis set group =>   2


           ************************************************************
           *        Program running with 4 parallel MPI-processes     *
           *              working on a common directory               *
           ************************************************************
------------------------------------------------------------------------------
                           ORCA GTO INTEGRAL CALCULATION
                           -- RI-GTO INTEGRALS CHOSEN --
------------------------------------------------------------------------------
------------------------------------------------------------------------------
                   ___                                                        
                  /   \      - P O W E R E D   B Y -                         
                 /     \                                                     
                 |  |  |   _    _      __       _____    __    __             
                 |  |  |  | |  | |    /  \     |  _  \  |  |  /  |          
                  \  \/   | |  | |   /    \    | | | |  |  | /  /          
                 / \  \   | |__| |  /  /\  \   | |_| |  |  |/  /          
                |  |  |   |  __  | /  /__\  \  |    /   |      \           
                |  |  |   | |  | | |   __   |  |    \   |  |\   \          
                \     /   | |  | | |  |  |  |  | |\  \  |  | \   \       
                 \___/    |_|  |_| |__|  |__|  |_| \__\ |__|  \__/        
                                                                              
                      - O R C A' S   B I G   F R I E N D -                    
                                      &                                       
                       - I N T E G R A L  F E E D E R -                       
                                                                              
 v1 FN, 2020, v2 2021                                                         
------------------------------------------------------------------------------


Reading SHARK input file again_eight_seven.SHARKINP.tmp ... ok
----------------------
SHARK INTEGRAL PACKAGE
----------------------

Number of atoms                             ...     34
Number of basis functions                   ...    804
Number of shells                            ...    304
Maximum angular momentum                    ...      3
Integral batch strategy                     ... SHARK/LIBINT Hybrid
RI-J (if used) integral strategy            ... SPLIT-RIJ (Revised 2003 algorithm where possible)
Printlevel                                  ...      1
Contraction scheme used                     ... SEGMENTED contraction
Coulomb Range Separation                    ... NOT USED
Exchange Range Separation                   ... NOT USED
Finite Nucleus Model                        ... NOT USED
Auxiliary Coulomb fitting basis             ... AVAILABLE
   # of basis functions in Aux-J            ...   1286
   # of shells in Aux-J                     ...    410
   Maximum angular momentum in Aux-J        ...      4
Auxiliary J/K fitting basis                 ... NOT available
Auxiliary Correlation fitting basis         ... NOT available
Auxiliary 'external' fitting basis          ... NOT available
Integral threshold                          ...     1.000000e-12
Primitive cut-off                           ...     1.000000e-14
Primitive pair pre-selection threshold      ...     1.000000e-14

Calculating pre-screening integrals         ... done (  0.2 sec) Dimension = 304
Organizing shell pair data                  ... done (  0.9 sec)
Shell pair information
Total number of shell pairs                 ...     46360
Shell pairs after pre-screening             ...     37630
Total number of primitive shell pairs       ...    146628
Primitive shell pairs kept                  ...     80078
          la=0 lb=0:   8536 shell pairs
          la=1 lb=0:  10283 shell pairs
          la=1 lb=1:   3052 shell pairs
          la=2 lb=0:   5720 shell pairs
          la=2 lb=1:   3432 shell pairs
          la=2 lb=2:   1029 shell pairs
          la=3 lb=0:   2692 shell pairs
          la=3 lb=1:   1689 shell pairs
          la=3 lb=2:    960 shell pairs
          la=3 lb=3:    237 shell pairs

Calculating one electron integrals          ... done (  0.1 sec)
Calculating RI/J V-Matrix + Cholesky decomp.... done (  0.1 sec)
Calculating Nuclear repulsion               ... done (  0.0 sec) ENN=   1802.760698277596 Eh

SHARK setup successfully completed in   2.4 seconds

Maximum memory used throughout the entire GTOINT-calculation: 54.5 MB


           ************************************************************
           *        Program running with 4 parallel MPI-processes     *
           *              working on a common directory               *
           ************************************************************
-------------------------------------------------------------------------------
                                 ORCA SCF
-------------------------------------------------------------------------------

------------
SCF SETTINGS
------------
Hamiltonian:
 Density Functional     Method          .... DFT(GTOs)
 Exchange Functional    Exchange        .... M062X
 Correlation Functional Correlation     .... M062X
 Gradients option       PostSCFGGA      .... off
 Hybrid DFT is turned on
   Fraction HF Exchange ScalHFX         ....  0.540000
   Scaling of DF-GGA-X  ScalDFX         ....  0.460000
   Scaling of DF-GGA-C  ScalDFC         ....  1.000000
   Scaling of DF-LDA-C  ScalLDAC        ....  1.000000
   Perturbative correction              ....  0.000000
   Density functional embedding theory  .... OFF
 RI-approximation to the Coulomb term is turned on
   Number of AuxJ basis functions       .... 1286
   RIJ-COSX (HFX calculated with COS-X)).... on


General Settings:
 Integral files         IntName         .... again_eight_seven
 Hartree-Fock type      HFTyp           .... RHF
 Total Charge           Charge          ....    0
 Multiplicity           Mult            ....    1
 Number of Electrons    NEL             ....  154
 Basis Dimension        Dim             ....  804
 Nuclear Repulsion      ENuc            ....   1802.7606982776 Eh

Convergence Acceleration:
 DIIS                   CNVDIIS         .... on
   Start iteration      DIISMaxIt       ....    12
   Startup error        DIISStart       ....  0.200000
   # of expansion vecs  DIISMaxEq       ....     5
   Bias factor          DIISBfac        ....   1.050
   Max. coefficient     DIISMaxC        ....  10.000
 Trust-Rad. Augm. Hess. CNVTRAH         .... auto
   Auto Start mean grad. ratio tolernc. ....  1.125000
   Auto Start start iteration           ....    20
   Auto Start num. interpolation iter.  ....    10
   Max. Number of Micro iterations      ....    16
   Max. Number of Macro iterations      .... Maxiter - #DIIS iter
   Number of Davidson start vectors     ....     2
   Converg. threshold I  (grad. norm)   ....   2.000e-06
   Converg. threshold II (energy diff.) ....   1.000e-09
   Grad. Scal. Fac. for Micro threshold ....   0.100
   Minimum threshold for Micro iter.    ....   0.010
   NR start threshold (gradient norm)   ....   0.001
   Initial trust radius                 ....   0.400
   Minimum AH scaling param. (alpha)    ....   1.000
   Maximum AH scaling param. (alpha)    .... 1000.000
   Orbital update algorithm             .... Taylor
   White noise on init. David. guess    .... on
   Maximum white noise                  ....   0.010
   Quad. conv. algorithm                .... NR
 SOSCF                  CNVSOSCF        .... on
   Start iteration      SOSCFMaxIt      ....   150
   Startup grad/error   SOSCFStart      ....  0.003300
 Level Shifting         CNVShift        .... on
   Level shift para.    LevelShift      ....    0.2500
   Turn off err/grad.   ShiftErr        ....    0.0010
 Zerner damping         CNVZerner       .... off
 Static damping         CNVDamp         .... on
   Fraction old density DampFac         ....    0.7000
   Max. Damping (<1)    DampMax         ....    0.9800
   Min. Damping (>=0)   DampMin         ....    0.0000
   Turn off err/grad.   DampErr         ....    0.1000
 Fernandez-Rico         CNVRico         .... off

SCF Procedure:
 Maximum # iterations   MaxIter         ....   125
 SCF integral mode      SCFMode         .... Direct
   Integral package                     .... SHARK and LIBINT hybrid scheme
 Reset frequency        DirectResetFreq ....    20
 Integral Threshold     Thresh          ....  1.000e-12 Eh
 Primitive CutOff       TCut            ....  1.000e-14 Eh

Convergence Tolerance:
 Convergence Check Mode ConvCheckMode   .... Total+1el-Energy
 Convergence forced     ConvForced      .... 0
 Energy Change          TolE            ....  1.000e-09 Eh
 1-El. energy change                    ....  1.000e-06 Eh
 Orbital Gradient       TolG            ....  2.000e-06
 Orbital Rotation angle TolX            ....  2.000e-06
 DIIS Error             TolErr          ....  1.000e-08


Diagonalization of the overlap matrix:
Smallest eigenvalue                        ... 6.544e-07
Time for diagonalization                   ...    0.303 sec
Threshold for overlap eigenvalues          ... 1.000e-08
Number of eigenvalues below threshold      ... 0
Time for construction of square roots      ...    0.067 sec
Total time needed                          ...    0.374 sec

Time for model grid setup =    0.553 sec

------------------------------
INITIAL GUESS: MODEL POTENTIAL
------------------------------
Loading Hartree-Fock densities                     ... done
Calculating cut-offs                               ... done
Initializing the effective Hamiltonian             ... done
Setting up the integral package (SHARK)            ... done
Starting the Coulomb interaction                   ... done (   1.3 sec)
Reading the grid                                   ... done
Mapping shells                                     ... done
Starting the XC term evaluation                    ... done (   1.3 sec)
  promolecular density results
     # of electrons  =    153.982321689
     EX              =   -125.835805582
     EC              =     -5.223561352
     EX+EC           =   -131.059366935
Transforming the Hamiltonian                       ... done (   0.1 sec)
Diagonalizing the Hamiltonian                      ... done (   0.1 sec)
Back transforming the eigenvectors                 ... done (   0.0 sec)
Now organizing SCF variables                       ... done
                      ------------------
                      INITIAL GUESS DONE (   3.3 sec)
                      ------------------
-------------------
DFT GRID GENERATION
-------------------

General Integration Accuracy     IntAcc      ... 4.959
Radial Grid Type                 RadialGrid  ... OptM3 with GC (2021)
Angular Grid (max. ang.)         AngularGrid ... 6 (Lebedev-590)
Angular grid pruning method      GridPruning ... 4 (adaptive)
Weight generation scheme         WeightScheme... Becke
Basis function cutoff            BFCut       ... 1.0000e-12
Integration weight cutoff        WCut        ... 1.0000e-14
Angular grids for H and He will be reduced by one unit
Partially contracted basis set               ... off
Rotationally invariant grid construction     ... off

Total number of grid points                  ...   422695
Total number of batches                      ...     6624
Average number of points per batch           ...       63
Average number of grid points per atom       ...    12432
Time for grid setup =    5.623 sec

--------------------
COSX GRID GENERATION
--------------------

GRIDX 1
-------
General Integration Accuracy     IntAcc      ... 4.020
Radial Grid Type                 RadialGrid  ... OptM3 with GC (2021)
Angular Grid (max. ang.)         AngularGrid ... 2 (Lebedev-110)
Angular grid pruning method      GridPruning ... 4 (adaptive)
Weight generation scheme         WeightScheme... Becke
Basis function cutoff            BFCut       ... 1.0000e-12
Integration weight cutoff        WCut        ... 1.0000e-14
Angular grids for H and He will be reduced by one unit
Partially contracted basis set               ... on
Rotationally invariant grid construction     ... off

Total number of grid points                  ...    49059
Total number of batches                      ...      787
Average number of points per batch           ...       62
Average number of grid points per atom       ...     1443
UseSFitting                                  ... on

GRIDX 2
-------
General Integration Accuracy     IntAcc      ... 4.338
Radial Grid Type                 RadialGrid  ... OptM3 with GC (2021)
Angular Grid (max. ang.)         AngularGrid ... 3 (Lebedev-194)
Angular grid pruning method      GridPruning ... 4 (adaptive)
Weight generation scheme         WeightScheme... Becke
Basis function cutoff            BFCut       ... 1.0000e-12
Integration weight cutoff        WCut        ... 1.0000e-14
Angular grids for H and He will be reduced by one unit
Partially contracted basis set               ... on
Rotationally invariant grid construction     ... off

Total number of grid points                  ...   107956
Total number of batches                      ...     1704
Average number of points per batch           ...       63
Average number of grid points per atom       ...     3175
UseSFitting                                  ... on

GRIDX 3
-------
General Integration Accuracy     IntAcc      ... 4.871
Radial Grid Type                 RadialGrid  ... OptM3 with GC (2021)
Angular Grid (max. ang.)         AngularGrid ... 4 (Lebedev-302)
Angular grid pruning method      GridPruning ... 4 (adaptive)
Weight generation scheme         WeightScheme... Becke
Basis function cutoff            BFCut       ... 1.0000e-12
Integration weight cutoff        WCut        ... 1.0000e-14
Angular grids for H and He will be reduced by one unit
Partially contracted basis set               ... on
Rotationally invariant grid construction     ... off

Total number of grid points                  ...   196698
Total number of batches                      ...     3090
Average number of points per batch           ...       63
Average number of grid points per atom       ...     5785
UseSFitting                                  ... on

Time for X-Grid setup             =    8.001 sec

--------------
SCF ITERATIONS
--------------
ITER       Energy         Delta-E        Max-DP      RMS-DP      [F,P]     Damp
               ***  Starting incremental Fock matrix formation  ***
  0   -920.0976156139   0.000000000000 0.14015526  0.00165330  0.1424997 0.7000
  1   -920.2615851448  -0.163969530843 0.12865430  0.00141904  0.0851724 0.7000
                               ***Turning on DIIS***
  2   -920.3518951508  -0.090310006073 0.32575442  0.00345653  0.0426046 0.0000
  3   -920.4994725982  -0.147577447345 0.03205247  0.00052705  0.0357885 0.0000
  4   -920.5188704262  -0.019397827992 0.00686183  0.00015382  0.0047527 0.0000
                      *** Initiating the SOSCF procedure ***
                           *** Shutting down DIIS ***
                      *** Re-Reading the Fockian *** 
                      *** Removing any level shift *** 
ITER      Energy       Delta-E        Grad      Rot      Max-DP    RMS-DP
  5   -920.51931320  -0.0004427720  0.000933  0.000933  0.003727  0.000080
               *** Restarting incremental Fock matrix formation ***
  6   -920.51937879  -0.0000655925  0.000430  0.001965  0.003891  0.000066
  7   -920.51937469   0.0000041019  0.000626  0.001213  0.000673  0.000012
  8   -920.51939500  -0.0000203143  0.000082  0.000340  0.000273  0.000005
  9   -920.51939530  -0.0000002956  0.000063  0.000187  0.000092  0.000002
 10   -920.51939559  -0.0000002864  0.000015  0.000050  0.000031  0.000001
 11   -920.51939558   0.0000000058  0.000030  0.000036  0.000016  0.000000
 12   -920.51939559  -0.0000000084  0.000003  0.000011  0.000012  0.000000
 13   -920.51939559  -0.0000000036  0.000002  0.000007  0.000004  0.000000
 14   -920.51939559  -0.0000000001  0.000001  0.000004  0.000007  0.000000
                  ***Gradient check signals convergence***
              ***Rediagonalizing the Fockian in SOSCF/NRSCF***

               *****************************************************
               *                     SUCCESS                       *
               *           SCF CONVERGED AFTER  15 CYCLES          *
               *****************************************************

Old exchange energy                            =    -69.236596197 Eh
New exchange energy                            =    -69.236629827 Eh
Exchange energy change after final integration =     -0.000033630 Eh
Total energy after final integration           =   -920.519429220 Eh
Final COS-X integration done in                =   154.641 sec

----------------
TOTAL SCF ENERGY
----------------

Total Energy       :         -920.51942922 Eh          -25048.60712 eV

Components:
Nuclear Repulsion  :         1802.76069828 Eh           49055.61254 eV
Electronic Energy  :        -2723.28012750 Eh          -74104.21965 eV
One Electron Energy:        -4824.00714325 Eh         -131267.90790 eV
Two Electron Energy:         2100.72701576 Eh           57163.68824 eV
Max COSX asymmetry :            0.00000134 Eh               0.00004 eV

Virial components:
Potential Energy   :        -1836.54417772 Eh          -49974.90775 eV
Kinetic Energy     :          916.02474850 Eh           24926.30064 eV
Virial Ratio       :            2.00490672


DFT components:
N(Alpha)           :       77.000016031885 electrons
N(Beta)            :       77.000016031885 electrons
N(Total)           :      154.000032063770 electrons
E(XC)              :      -64.657210624376 Eh       
DFET-embed. en.    :        0.000000000000 Eh       

---------------
SCF CONVERGENCE
---------------

  Last Energy change         ...    1.3453e-09  Tolerance :   1.0000e-09
  Last MAX-Density change    ...    2.5535e-15  Tolerance :   1.0000e-08
  Last RMS-Density change    ...    1.4533e-17  Tolerance :   1.0000e-09
  Last Orbital Gradient      ...    3.9065e-07  Tolerance :   2.0000e-06
  Last Orbital Rotation      ...    1.4079e-06  Tolerance :   2.0000e-06

             **** THE GBW FILE WAS UPDATED (again_eight_seven.gbw) ****
             **** DENSITY again_eight_seven.scfp WAS UPDATED ****
             **** ENERGY FILE WAS UPDATED (again_eight_seven.en.tmp) ****
             **** THE GBW FILE WAS UPDATED (again_eight_seven.gbw) ****
             **** DENSITY again_eight_seven.scfp WAS UPDATED ****
----------------
ORBITAL ENERGIES
----------------

  NO   OCC          E(Eh)            E(eV) 
   0   2.0000     -10.583655      -287.9959 
   1   2.0000     -10.583635      -287.9954 
   2   2.0000     -10.569970      -287.6235 
   3   2.0000     -10.569372      -287.6072 
   4   2.0000     -10.564194      -287.4663 
   5   2.0000     -10.564179      -287.4659 
   6   2.0000     -10.561473      -287.3923 
   7   2.0000     -10.561097      -287.3821 
   8   2.0000     -10.561078      -287.3815 
   9   2.0000     -10.560895      -287.3766 
  10   2.0000     -10.560089      -287.3546 
  11   2.0000     -10.560020      -287.3528 
  12   2.0000     -10.554476      -287.2019 
  13   2.0000     -10.554456      -287.2014 
  14   2.0000     -10.553357      -287.1714 
  15   2.0000     -10.553341      -287.1710 
  16   2.0000     -10.552154      -287.1387 
  17   2.0000     -10.552054      -287.1360 
  18   2.0000     -10.552044      -287.1357 
  19   2.0000     -10.551204      -287.1129 
  20   2.0000     -10.551025      -287.1080 
  21   2.0000     -10.551022      -287.1079 
  22   2.0000     -10.548853      -287.0489 
  23   2.0000     -10.546389      -286.9818 
  24   2.0000      -1.026502       -27.9325 
  25   2.0000      -0.988592       -26.9010 
  26   2.0000      -0.987190       -26.8628 
  27   2.0000      -0.937383       -25.5075 
  28   2.0000      -0.936332       -25.4789 
  29   2.0000      -0.915553       -24.9135 
  30   2.0000      -0.886219       -24.1152 
  31   2.0000      -0.867051       -23.5937 
  32   2.0000      -0.850726       -23.1494 
  33   2.0000      -0.842504       -22.9257 
  34   2.0000      -0.814615       -22.1668 
  35   2.0000      -0.814364       -22.1600 
  36   2.0000      -0.730581       -19.8801 
  37   2.0000      -0.729809       -19.8591 
  38   2.0000      -0.725447       -19.7404 
  39   2.0000      -0.715420       -19.4676 
  40   2.0000      -0.713730       -19.4216 
  41   2.0000      -0.652094       -17.7444 
  42   2.0000      -0.634175       -17.2568 
  43   2.0000      -0.623683       -16.9713 
  44   2.0000      -0.615906       -16.7597 
  45   2.0000      -0.608166       -16.5490 
  46   2.0000      -0.596289       -16.2259 
  47   2.0000      -0.556769       -15.1505 
  48   2.0000      -0.550482       -14.9794 
  49   2.0000      -0.538107       -14.6426 
  50   2.0000      -0.534043       -14.5320 
  51   2.0000      -0.526017       -14.3136 
  52   2.0000      -0.515754       -14.0344 
  53   2.0000      -0.512624       -13.9492 
  54   2.0000      -0.500259       -13.6127 
  55   2.0000      -0.493829       -13.4378 
  56   2.0000      -0.483070       -13.1450 
  57   2.0000      -0.481381       -13.0990 
  58   2.0000      -0.471137       -12.8203 
  59   2.0000      -0.470822       -12.8117 
  60   2.0000      -0.468310       -12.7434 
  61   2.0000      -0.447211       -12.1692 
  62   2.0000      -0.443241       -12.0612 
  63   2.0000      -0.432751       -11.7758 
  64   2.0000      -0.426561       -11.6073 
  65   2.0000      -0.409709       -11.1487 
  66   2.0000      -0.407366       -11.0850 
  67   2.0000      -0.388384       -10.5685 
  68   2.0000      -0.388017       -10.5585 
  69   2.0000      -0.386110       -10.5066 
  70   2.0000      -0.341255        -9.2860 
  71   2.0000      -0.331226        -9.0131 
  72   2.0000      -0.326662        -8.8889 
  73   2.0000      -0.315266        -8.5788 
  74   2.0000      -0.313174        -8.5219 
  75   2.0000      -0.259327        -7.0566 
  76   2.0000      -0.256924        -6.9913 
  77   0.0000      -0.045023        -1.2251 
  78   0.0000      -0.037566        -1.0222 
  79   0.0000      -0.035966        -0.9787 
  80   0.0000       0.000333         0.0091 
  81   0.0000       0.006322         0.1720 
  82   0.0000       0.019019         0.5175 
  83   0.0000       0.054698         1.4884 
  84   0.0000       0.077673         2.1136 
  85   0.0000       0.084122         2.2891 
  86   0.0000       0.087944         2.3931 
  87   0.0000       0.090408         2.4601 
  88   0.0000       0.098645         2.6843 
  89   0.0000       0.110393         3.0040 
  90   0.0000       0.114243         3.1087 
  91   0.0000       0.116492         3.1699 
  92   0.0000       0.122798         3.3415 
  93   0.0000       0.126233         3.4350 
  94   0.0000       0.129427         3.5219 
  95   0.0000       0.136380         3.7111 
  96   0.0000       0.139420         3.7938 
  97   0.0000       0.142070         3.8659 
  98   0.0000       0.156442         4.2570 
  99   0.0000       0.175180         4.7669 
 100   0.0000       0.176268         4.7965 
 101   0.0000       0.180043         4.8992 
 102   0.0000       0.182136         4.9562 
 103   0.0000       0.190645         5.1877 
 104   0.0000       0.201531         5.4839 
 105   0.0000       0.202812         5.5188 
 106   0.0000       0.210155         5.7186 
 107   0.0000       0.211721         5.7612 
 108   0.0000       0.212732         5.7887 
 109   0.0000       0.227833         6.1996 
 110   0.0000       0.233465         6.3529 
 111   0.0000       0.234536         6.3821 
 112   0.0000       0.241314         6.5665 
 113   0.0000       0.244564         6.6549 
 114   0.0000       0.249601         6.7920 
 115   0.0000       0.259572         7.0633 
 116   0.0000       0.263953         7.1825 
 117   0.0000       0.268426         7.3043 
 118   0.0000       0.269351         7.3294 
 119   0.0000       0.271064         7.3760 
 120   0.0000       0.279814         7.6141 
 121   0.0000       0.282975         7.7002 
 122   0.0000       0.284292         7.7360 
 123   0.0000       0.286254         7.7894 
 124   0.0000       0.287324         7.8185 
 125   0.0000       0.296722         8.0742 
 126   0.0000       0.302933         8.2432 
 127   0.0000       0.305913         8.3243 
 128   0.0000       0.308293         8.3891 
 129   0.0000       0.317790         8.6475 
 130   0.0000       0.319177         8.6853 
 131   0.0000       0.320909         8.7324 
 132   0.0000       0.322588         8.7781 
 133   0.0000       0.324340         8.8257 
 134   0.0000       0.325774         8.8648 
 135   0.0000       0.327563         8.9135 
 136   0.0000       0.340649         9.2695 
 137   0.0000       0.344220         9.3667 
 138   0.0000       0.357931         9.7398 
 139   0.0000       0.357998         9.7416 
 140   0.0000       0.358156         9.7459 
 141   0.0000       0.363016         9.8782 
 142   0.0000       0.364250         9.9117 
 143   0.0000       0.372787        10.1441 
 144   0.0000       0.375509        10.2181 
 145   0.0000       0.379846        10.3361 
 146   0.0000       0.383485        10.4352 
 147   0.0000       0.384100        10.4519 
 148   0.0000       0.385151        10.4805 
 149   0.0000       0.391204        10.6452 
 150   0.0000       0.391591        10.6557 
 151   0.0000       0.396792        10.7973 
 152   0.0000       0.406075        11.0499 
 153   0.0000       0.411653        11.2016 
 154   0.0000       0.414361        11.2753 
 155   0.0000       0.417755        11.3677 
 156   0.0000       0.420948        11.4546 
 157   0.0000       0.428164        11.6509 
 158   0.0000       0.429732        11.6936 
 159   0.0000       0.432261        11.7624 
 160   0.0000       0.434132        11.8133 
 161   0.0000       0.444655        12.0997 
 162   0.0000       0.457693        12.4545 
 163   0.0000       0.461046        12.5457 
 164   0.0000       0.461392        12.5551 
 165   0.0000       0.465122        12.6566 
 166   0.0000       0.467572        12.7233 
 167   0.0000       0.472715        12.8632 
 168   0.0000       0.476610        12.9692 
 169   0.0000       0.478488        13.0203 
 170   0.0000       0.492386        13.3985 
 171   0.0000       0.495151        13.4737 
 172   0.0000       0.509203        13.8561 
 173   0.0000       0.509747        13.8709 
 174   0.0000       0.515406        14.0249 
 175   0.0000       0.515749        14.0343 
 176   0.0000       0.518708        14.1148 
 177   0.0000       0.526703        14.3323 
 178   0.0000       0.529968        14.4212 
 179   0.0000       0.538192        14.6450 
 180   0.0000       0.543580        14.7916 
 181   0.0000       0.548417        14.9232 
 182   0.0000       0.550798        14.9880 
 183   0.0000       0.552347        15.0301 
 184   0.0000       0.555729        15.1222 
 185   0.0000       0.556762        15.1503 
 186   0.0000       0.569632        15.5005 
 187   0.0000       0.572834        15.5876 
 188   0.0000       0.582207        15.8427 
 189   0.0000       0.591053        16.0834 
 190   0.0000       0.594668        16.1817 
 191   0.0000       0.606383        16.5005 
 192   0.0000       0.622087        16.9278 
 193   0.0000       0.633956        17.2508 
 194   0.0000       0.634513        17.2660 
 195   0.0000       0.635570        17.2947 
 196   0.0000       0.635667        17.2974 
 197   0.0000       0.642011        17.4700 
 198   0.0000       0.645365        17.5613 
 199   0.0000       0.651054        17.7161 
 200   0.0000       0.658746        17.9254 
 201   0.0000       0.660056        17.9610 
 202   0.0000       0.660101        17.9623 
 203   0.0000       0.660994        17.9866 
 204   0.0000       0.672782        18.3073 
 205   0.0000       0.676896        18.4193 
 206   0.0000       0.682822        18.5805 
 207   0.0000       0.683122        18.5887 
 208   0.0000       0.690940        18.8014 
 209   0.0000       0.698845        19.0166 
 210   0.0000       0.699316        19.0293 
 211   0.0000       0.714384        19.4394 
 212   0.0000       0.717562        19.5259 
 213   0.0000       0.728189        19.8150 
 214   0.0000       0.731127        19.8950 
 215   0.0000       0.731785        19.9129 
 216   0.0000       0.741953        20.1896 
 217   0.0000       0.751693        20.4546 
 218   0.0000       0.756100        20.5745 
 219   0.0000       0.762263        20.7422 
 220   0.0000       0.768697        20.9173 
 221   0.0000       0.769733        20.9455 
 222   0.0000       0.770663        20.9708 
 223   0.0000       0.781784        21.2734 
 224   0.0000       0.782359        21.2891 
 225   0.0000       0.785992        21.3879 
 226   0.0000       0.790010        21.4973 
 227   0.0000       0.794785        21.6272 
 228   0.0000       0.796737        21.6803 
 229   0.0000       0.801595        21.8125 
 230   0.0000       0.802237        21.8300 
 231   0.0000       0.803915        21.8756 
 232   0.0000       0.817040        22.2328 
 233   0.0000       0.822757        22.3884 
 234   0.0000       0.828382        22.5414 
 235   0.0000       0.831401        22.6236 
 236   0.0000       0.836653        22.7665 
 237   0.0000       0.846816        23.0430 
 238   0.0000       0.857736        23.3402 
 239   0.0000       0.861780        23.4502 
 240   0.0000       0.865273        23.5453 
 241   0.0000       0.869058        23.6483 
 242   0.0000       0.869374        23.6569 
 243   0.0000       0.875403        23.8209 
 244   0.0000       0.880939        23.9716 
 245   0.0000       0.891619        24.2622 
 246   0.0000       0.894907        24.3516 
 247   0.0000       0.895965        24.3805 
 248   0.0000       0.907584        24.6966 
 249   0.0000       0.909459        24.7476 
 250   0.0000       0.909870        24.7588 
 251   0.0000       0.922685        25.1075 
 252   0.0000       0.922951        25.1148 
 253   0.0000       0.925745        25.1908 
 254   0.0000       0.932208        25.3667 
 255   0.0000       0.937685        25.5157 
 256   0.0000       0.956023        26.0147 
 257   0.0000       0.958149        26.0726 
 258   0.0000       0.958992        26.0955 
 259   0.0000       0.980611        26.6838 
 260   0.0000       0.993976        27.0475 
 261   0.0000       0.998916        27.1819 
 262   0.0000       0.999311        27.1926 
 263   0.0000       1.015841        27.6425 
 264   0.0000       1.021709        27.8021 
 265   0.0000       1.029378        28.0108 
 266   0.0000       1.032418        28.0935 
 267   0.0000       1.045848        28.4590 
 268   0.0000       1.054985        28.7076 
 269   0.0000       1.061657        28.8892 
 270   0.0000       1.077565        29.3220 
 271   0.0000       1.080207        29.3939 
 272   0.0000       1.081444        29.4276 
 273   0.0000       1.091610        29.7042 
 274   0.0000       1.093228        29.7482 
 275   0.0000       1.104126        30.0448 
 276   0.0000       1.104250        30.0482 
 277   0.0000       1.112524        30.2733 
 278   0.0000       1.119032        30.4504 
 279   0.0000       1.134322        30.8665 
 280   0.0000       1.144741        31.1500 
 281   0.0000       1.163498        31.6604 
 282   0.0000       1.185699        32.2645 
 283   0.0000       1.203517        32.7494 
 284   0.0000       1.212473        32.9931 
 285   0.0000       1.214589        33.0506 
 286   0.0000       1.219836        33.1934 
 287   0.0000       1.223210        33.2852 
 288   0.0000       1.229421        33.4543 
 289   0.0000       1.232304        33.5327 
 290   0.0000       1.245267        33.8855 
 291   0.0000       1.249105        33.9899 
 292   0.0000       1.250481        34.0273 
 293   0.0000       1.251973        34.0679 
 294   0.0000       1.259912        34.2839 
 295   0.0000       1.270789        34.5799 
 296   0.0000       1.278533        34.7906 
 297   0.0000       1.282953        34.9109 
 298   0.0000       1.290268        35.1100 
 299   0.0000       1.293260        35.1914 
 300   0.0000       1.294294        35.2195 
 301   0.0000       1.306902        35.5626 
 302   0.0000       1.310152        35.6510 
 303   0.0000       1.310282        35.6546 
 304   0.0000       1.323630        36.0178 
 305   0.0000       1.324192        36.0331 
 306   0.0000       1.328264        36.1439 
 307   0.0000       1.349161        36.7125 
 308   0.0000       1.359509        36.9941 
 309   0.0000       1.363462        37.1017 
 310   0.0000       1.364895        37.1407 
 311   0.0000       1.372287        37.3418 
 312   0.0000       1.375640        37.4331 
 313   0.0000       1.377983        37.4968 
 314   0.0000       1.389850        37.8197 
 315   0.0000       1.394281        37.9403 
 316   0.0000       1.415819        38.5264 
 317   0.0000       1.420154        38.6444 
 318   0.0000       1.421511        38.6813 
 319   0.0000       1.429482        38.8982 
 320   0.0000       1.429794        38.9067 
 321   0.0000       1.432746        38.9870 
 322   0.0000       1.437907        39.1274 
 323   0.0000       1.454976        39.5919 
 324   0.0000       1.469401        39.9844 
 325   0.0000       1.480807        40.2948 
 326   0.0000       1.490689        40.5637 
 327   0.0000       1.493236        40.6330 
 328   0.0000       1.498790        40.7841 
 329   0.0000       1.511734        41.1364 
 330   0.0000       1.513154        41.1750 
 331   0.0000       1.517014        41.2800 
 332   0.0000       1.532772        41.7089 
 333   0.0000       1.538505        41.8648 
 334   0.0000       1.540861        41.9290 
 335   0.0000       1.546694        42.0877 
 336   0.0000       1.548614        42.1399 
 337   0.0000       1.553025        42.2600 
 338   0.0000       1.570616        42.7386 
 339   0.0000       1.571630        42.7662 
 340   0.0000       1.575587        42.8739 
 341   0.0000       1.577359        42.9221 
 342   0.0000       1.594017        43.3754 
 343   0.0000       1.595312        43.4106 
 344   0.0000       1.599334        43.5201 
 345   0.0000       1.608120        43.7592 
 346   0.0000       1.611683        43.8561 
 347   0.0000       1.625443        44.2306 
 348   0.0000       1.633915        44.4611 
 349   0.0000       1.644828        44.7580 
 350   0.0000       1.648672        44.8627 
 351   0.0000       1.652034        44.9541 
 352   0.0000       1.653634        44.9977 
 353   0.0000       1.663842        45.2754 
 354   0.0000       1.664008        45.2800 
 355   0.0000       1.667042        45.3625 
 356   0.0000       1.672523        45.5117 
 357   0.0000       1.691562        46.0297 
 358   0.0000       1.700649        46.2770 
 359   0.0000       1.714103        46.6431 
 360   0.0000       1.718891        46.7734 
 361   0.0000       1.723037        46.8862 
 362   0.0000       1.725851        46.9628 
 363   0.0000       1.730332        47.0847 
 364   0.0000       1.738833        47.3161 
 365   0.0000       1.741294        47.3830 
 366   0.0000       1.742684        47.4208 
 367   0.0000       1.751089        47.6495 
 368   0.0000       1.759940        47.8904 
 369   0.0000       1.760310        47.9005 
 370   0.0000       1.766946        48.0810 
 371   0.0000       1.768125        48.1131 
 372   0.0000       1.783077        48.5200 
 373   0.0000       1.786669        48.6177 
 374   0.0000       1.793226        48.7962 
 375   0.0000       1.816547        49.4308 
 376   0.0000       1.824874        49.6573 
 377   0.0000       1.829255        49.7766 
 378   0.0000       1.836562        49.9754 
 379   0.0000       1.868618        50.8477 
 380   0.0000       1.870019        50.8858 
 381   0.0000       1.890189        51.4347 
 382   0.0000       1.907945        51.9178 
 383   0.0000       1.912520        52.0423 
 384   0.0000       1.919869        52.2423 
 385   0.0000       1.923577        52.3432 
 386   0.0000       1.928415        52.4748 
 387   0.0000       1.951583        53.1053 
 388   0.0000       1.954333        53.1801 
 389   0.0000       1.966152        53.5017 
 390   0.0000       1.972561        53.6761 
 391   0.0000       1.980515        53.8926 
 392   0.0000       1.991289        54.1857 
 393   0.0000       2.000400        54.4336 
 394   0.0000       2.006337        54.5952 
 395   0.0000       2.007676        54.6316 
 396   0.0000       2.015286        54.8387 
 397   0.0000       2.036349        55.4119 
 398   0.0000       2.041547        55.5533 
 399   0.0000       2.044037        55.6211 
 400   0.0000       2.045541        55.6620 
 401   0.0000       2.084709        56.7278 
 402   0.0000       2.085445        56.7478 
 403   0.0000       2.119774        57.6820 
[...]

For completeness - the Gibbs free energy minus the electronic energy
G-E(el)                           ...     -3.57654622 Eh  -2244.31 kcal/mol


The first frequency considered to be a vibration is 6
The total number of vibrations considered is 96


--------------------------
THERMOCHEMISTRY AT 8000.00K
--------------------------

Temperature         ... 8000.00 K
Pressure            ... 1.00 atm
Total Mass          ... 298.34 AMU

Throughout the following assumptions are being made:
  (1) The electronic state is orbitally nondegenerate
  (2) There are no thermally accessible electronically excited states
  (3) Hindered rotations indicated by low frequency modes are not
      treated as such but are treated as vibrations and this may
      cause some error
  (4) All equations used are the standard statistical mechanics
      equations for an ideal gas
  (5) All vibrations are strictly harmonic

freq.      90.22  E(vib)   ...      15.77 
freq.      90.71  E(vib)   ...      15.77 
freq.     132.09  E(vib)   ...      15.71 
freq.     171.09  E(vib)   ...      15.65 
freq.     229.27  E(vib)   ...      15.57 
freq.     301.85  E(vib)   ...      15.47 
freq.     304.42  E(vib)   ...      15.47 
freq.     310.11  E(vib)   ...      15.46 
freq.     330.00  E(vib)   ...      15.43 
freq.     360.94  E(vib)   ...      15.39 
freq.     368.16  E(vib)   ...      15.38 
freq.     390.15  E(vib)   ...      15.35 
freq.     395.13  E(vib)   ...      15.34 
freq.     449.76  E(vib)   ...      15.26 
freq.     456.87  E(vib)   ...      15.25 
freq.     463.39  E(vib)   ...      15.24 
freq.     477.79  E(vib)   ...      15.22 
freq.     496.18  E(vib)   ...      15.20 
freq.     502.05  E(vib)   ...      15.19 
freq.     510.53  E(vib)   ...      15.18 
freq.     512.84  E(vib)   ...      15.18 
freq.     552.86  E(vib)   ...      15.12 
freq.     565.79  E(vib)   ...      15.10 
freq.     583.84  E(vib)   ...      15.08 
freq.     589.87  E(vib)   ...      15.07 
freq.     647.03  E(vib)   ...      14.99 
freq.     656.25  E(vib)   ...      14.98 
freq.     685.69  E(vib)   ...      14.94 
freq.     685.91  E(vib)   ...      14.94 
freq.     689.25  E(vib)   ...      14.93 
freq.     699.98  E(vib)   ...      14.92 
freq.     748.77  E(vib)   ...      14.85 
freq.     778.23  E(vib)   ...      14.81 
freq.     797.43  E(vib)   ...      14.79 
freq.     802.49  E(vib)   ...      14.78 
freq.     838.29  E(vib)   ...      14.73 
freq.     838.34  E(vib)   ...      14.73 
freq.     838.83  E(vib)   ...      14.73 
freq.     846.34  E(vib)   ...      14.72 
freq.     868.31  E(vib)   ...      14.69 
freq.     878.15  E(vib)   ...      14.68 
freq.     891.20  E(vib)   ...      14.66 
freq.     917.33  E(vib)   ...      14.62 
freq.     955.28  E(vib)   ...      14.57 
freq.     984.43  E(vib)   ...      14.53 
freq.     990.27  E(vib)   ...      14.52 
freq.     995.51  E(vib)   ...      14.52 
freq.    1000.85  E(vib)   ...      14.51 
freq.    1004.02  E(vib)   ...      14.51 
freq.    1005.35  E(vib)   ...      14.50 
freq.    1019.25  E(vib)   ...      14.49 
freq.    1052.45  E(vib)   ...      14.44 
freq.    1145.35  E(vib)   ...      14.32 
freq.    1146.60  E(vib)   ...      14.32 
freq.    1169.55  E(vib)   ...      14.28 
freq.    1177.19  E(vib)   ...      14.27 
freq.    1183.59  E(vib)   ...      14.27 
freq.    1214.28  E(vib)   ...      14.23 
freq.    1228.81  E(vib)   ...      14.21 
freq.    1247.34  E(vib)   ...      14.18 
freq.    1251.86  E(vib)   ...      14.18 
freq.    1254.12  E(vib)   ...      14.17 
freq.    1259.12  E(vib)   ...      14.17 
freq.    1300.44  E(vib)   ...      14.11 
freq.    1316.57  E(vib)   ...      14.09 
freq.    1357.39  E(vib)   ...      14.04 
freq.    1372.33  E(vib)   ...      14.02 
freq.    1393.03  E(vib)   ...      13.99 
freq.    1405.71  E(vib)   ...      13.97 
freq.    1429.74  E(vib)   ...      13.94 
freq.    1441.32  E(vib)   ...      13.93 
freq.    1451.31  E(vib)   ...      13.91 
freq.    1470.45  E(vib)   ...      13.89 
freq.    1475.44  E(vib)   ...      13.88 
freq.    1478.66  E(vib)   ...      13.88 
freq.    1515.18  E(vib)   ...      13.83 
freq.    1554.12  E(vib)   ...      13.78 
freq.    1555.36  E(vib)   ...      13.78 
freq.    1585.63  E(vib)   ...      13.74 
freq.    1595.26  E(vib)   ...      13.73 
freq.    1610.47  E(vib)   ...      13.71 
freq.    1674.68  E(vib)   ...      13.62 
freq.    1679.51  E(vib)   ...      13.62 
freq.    1690.48  E(vib)   ...      13.60 
freq.    1693.61  E(vib)   ...      13.60 
freq.    2129.43  E(vib)   ...      13.05 
freq.    3200.90  E(vib)   ...      11.76 
freq.    3201.95  E(vib)   ...      11.76 
freq.    3202.44  E(vib)   ...      11.76 
freq.    3209.10  E(vib)   ...      11.75 
freq.    3209.46  E(vib)   ...      11.75 
freq.    3217.44  E(vib)   ...      11.74 
freq.    3218.61  E(vib)   ...      11.74 
freq.    3219.26  E(vib)   ...      11.74 
freq.    3235.39  E(vib)   ...      11.72 
freq.    3236.52  E(vib)   ...      11.72 

------------
INNER ENERGY
------------

The inner energy is: U= E(el) + E(ZPE) + E(vib) + E(rot) + E(trans)
    E(el)   - is the total energy from the electronic structure calculation
              = E(kin-el) + E(nuc-el) + E(el-el) + E(nuc-nuc)
    E(ZPE)  - the the zero temperature vibrational energy from the frequency calculation
    E(vib)  - the the finite temperature correction to E(ZPE) due to population
              of excited vibrational states
    E(rot)  - is the rotational thermal energy
    E(trans)- is the translational thermal energy

Summary of contributions to the inner energy U:
Electronic energy                ...   -920.51942925 Eh
Zero point energy                ...      0.25824429 Eh     162.05 kcal/mol
Thermal vibrational correction   ...      2.18743036 Eh    1372.63 kcal/mol
Thermal rotational correction    ...      0.03800158 Eh      23.85 kcal/mol
Thermal translational correction ...      0.03800158 Eh      23.85 kcal/mol
-----------------------------------------------------------------------
Total thermal energy                   -917.99775144 Eh


Summary of corrections to the electronic energy:
(perhaps to be used in another calculation)
Total thermal correction                  2.26343352 Eh    1420.32 kcal/mol
Non-thermal (ZPE) correction              0.25824429 Eh     162.05 kcal/mol
-----------------------------------------------------------------------
Total correction                          2.52167781 Eh    1582.37 kcal/mol


--------
ENTHALPY
--------

The enthalpy is H = U + kB*T
                kB is Boltzmann's constant
Total free energy                 ...   -917.99775144 Eh 
Thermal Enthalpy correction       ...      0.02533514 Eh      15.90 kcal/mol
-----------------------------------------------------------------------
Total Enthalpy                    ...   -917.97241630 Eh


Note: Rotational entropy computed according to Herzberg 
Infrared and Raman Spectra, Chapter V,1, Van Nostrand Reinhold, 1945 
Point Group:  Cs, Symmetry Number:   1  
Rotational constants in cm-1:     0.011736     0.011123     0.005711 

Vibrational entropy computed according to the QRRHO of S. Grimme
Chem.Eur.J. 2012 18 9955


-------
ENTROPY
-------

The entropy contributions are T*S = T*(S(el)+S(vib)+S(rot)+S(trans))
     S(el)   - electronic entropy
     S(vib)  - vibrational entropy
     S(rot)  - rotational entropy
     S(trans)- translational entropy
The entropies will be listed as multiplied by the temperature to get
units of energy

Electronic entropy                ...      0.00000000 Eh      0.00 kcal/mol
Vibrational entropy               ...      6.72854106 Eh   4222.21 kcal/mol
Rotational entropy                ...      0.55893039 Eh    350.73 kcal/mol
Translational entropy             ...      0.75624431 Eh    474.55 kcal/mol
-----------------------------------------------------------------------
Final entropy term                ...      8.04371576 Eh   5047.50 kcal/mol

In case the symmetry of your molecule has not been determined correctly
or in case you have a reason to use a different symmetry number we print 
out the resulting rotational entropy values for sn=1,12 :
 --------------------------------------------------------
|  sn= 1 | S(rot)=       0.55893039 Eh    350.73 kcal/mol|
|  sn= 2 | S(rot)=       0.54136993 Eh    339.71 kcal/mol|
|  sn= 3 | S(rot)=       0.53109772 Eh    333.27 kcal/mol|
|  sn= 4 | S(rot)=       0.52380947 Eh    328.69 kcal/mol|
|  sn= 5 | S(rot)=       0.51815627 Eh    325.15 kcal/mol|
|  sn= 6 | S(rot)=       0.51353726 Eh    322.25 kcal/mol|
|  sn= 7 | S(rot)=       0.50963195 Eh    319.80 kcal/mol|
|  sn= 8 | S(rot)=       0.50624901 Eh    317.68 kcal/mol|
|  sn= 9 | S(rot)=       0.50326505 Eh    315.80 kcal/mol|
|  sn=10 | S(rot)=       0.50059581 Eh    314.13 kcal/mol|
|  sn=11 | S(rot)=       0.49818118 Eh    312.61 kcal/mol|
|  sn=12 | S(rot)=       0.49597680 Eh    311.23 kcal/mol|
 --------------------------------------------------------


-------------------
GIBBS FREE ENERGY
-------------------

The Gibbs free energy is G = H - T*S

Total enthalpy                    ...   -917.97241630 Eh 
Total entropy correction          ...     -8.04371576 Eh  -5047.50 kcal/mol
-----------------------------------------------------------------------
Final Gibbs free energy         ...   -926.01613205 Eh

For completeness - the Gibbs free energy minus the electronic energy
G-E(el)                           ...     -5.49670280 Eh  -3449.23 kcal/mol


The first frequency considered to be a vibration is 6
The total number of vibrations considered is 96


--------------------------
THERMOCHEMISTRY AT 10000.00K
--------------------------

Temperature         ... 10000.00 K
Pressure            ... 1.00 atm
Total Mass          ... 298.34 AMU

Throughout the following assumptions are being made:
  (1) The electronic state is orbitally nondegenerate
  (2) There are no thermally accessible electronically excited states
  (3) Hindered rotations indicated by low frequency modes are not
      treated as such but are treated as vibrations and this may
      cause some error
  (4) All equations used are the standard statistical mechanics
      equations for an ideal gas
  (5) All vibrations are strictly harmonic

freq.      90.22  E(vib)   ...      19.74 
freq.      90.71  E(vib)   ...      19.74 
freq.     132.09  E(vib)   ...      19.68 
freq.     171.09  E(vib)   ...      19.63 
freq.     229.27  E(vib)   ...      19.55 
freq.     301.85  E(vib)   ...      19.44 
freq.     304.42  E(vib)   ...      19.44 
freq.     310.11  E(vib)   ...      19.43 
freq.     330.00  E(vib)   ...      19.40 
freq.     360.94  E(vib)   ...      19.36 
freq.     368.16  E(vib)   ...      19.35 
freq.     390.15  E(vib)   ...      19.32 
freq.     395.13  E(vib)   ...      19.31 
freq.     449.76  E(vib)   ...      19.24 
freq.     456.87  E(vib)   ...      19.23 
freq.     463.39  E(vib)   ...      19.22 
freq.     477.79  E(vib)   ...      19.20 
freq.     496.18  E(vib)   ...      19.17 
freq.     502.05  E(vib)   ...      19.16 
freq.     510.53  E(vib)   ...      19.15 
freq.     512.84  E(vib)   ...      19.15 
freq.     552.86  E(vib)   ...      19.09 
freq.     565.79  E(vib)   ...      19.07 
freq.     583.84  E(vib)   ...      19.05 
freq.     589.87  E(vib)   ...      19.04 
freq.     647.03  E(vib)   ...      18.96 
freq.     656.25  E(vib)   ...      18.95 
freq.     685.69  E(vib)   ...      18.91 
freq.     685.91  E(vib)   ...      18.91 
freq.     689.25  E(vib)   ...      18.90 
freq.     699.98  E(vib)   ...      18.89 
freq.     748.77  E(vib)   ...      18.82 
freq.     778.23  E(vib)   ...      18.78 
freq.     797.43  E(vib)   ...      18.75 
freq.     802.49  E(vib)   ...      18.75 
freq.     838.29  E(vib)   ...      18.70 
freq.     838.34  E(vib)   ...      18.70 
freq.     838.83  E(vib)   ...      18.70 
freq.     846.34  E(vib)   ...      18.69 
freq.     868.31  E(vib)   ...      18.66 
freq.     878.15  E(vib)   ...      18.64 
freq.     891.20  E(vib)   ...      18.63 
freq.     917.33  E(vib)   ...      18.59 
freq.     955.28  E(vib)   ...      18.54 
freq.     984.43  E(vib)   ...      18.50 
freq.     990.27  E(vib)   ...      18.49 
freq.     995.51  E(vib)   ...      18.48 
freq.    1000.85  E(vib)   ...      18.48 
freq.    1004.02  E(vib)   ...      18.47 
freq.    1005.35  E(vib)   ...      18.47 
freq.    1019.25  E(vib)   ...      18.45 
freq.    1052.45  E(vib)   ...      18.41 
freq.    1145.35  E(vib)   ...      18.28 
freq.    1146.60  E(vib)   ...      18.28 
freq.    1169.55  E(vib)   ...      18.25 
freq.    1177.19  E(vib)   ...      18.24 
freq.    1183.59  E(vib)   ...      18.23 
freq.    1214.28  E(vib)   ...      18.19 
freq.    1228.81  E(vib)   ...      18.17 
freq.    1247.34  E(vib)   ...      18.14 
freq.    1251.86  E(vib)   ...      18.14 
freq.    1254.12  E(vib)   ...      18.13 
freq.    1259.12  E(vib)   ...      18.13 
freq.    1300.44  E(vib)   ...      18.07 
freq.    1316.57  E(vib)   ...      18.05 
freq.    1357.39  E(vib)   ...      18.00 
freq.    1372.33  E(vib)   ...      17.98 
freq.    1393.03  E(vib)   ...      17.95 
freq.    1405.71  E(vib)   ...      17.93 
freq.    1429.74  E(vib)   ...      17.90 
freq.    1441.32  E(vib)   ...      17.88 
freq.    1451.31  E(vib)   ...      17.87 
freq.    1470.45  E(vib)   ...      17.84 
freq.    1475.44  E(vib)   ...      17.84 
freq.    1478.66  E(vib)   ...      17.83 
freq.    1515.18  E(vib)   ...      17.79 
freq.    1554.12  E(vib)   ...      17.73 
freq.    1555.36  E(vib)   ...      17.73 
freq.    1585.63  E(vib)   ...      17.69 
freq.    1595.26  E(vib)   ...      17.68 
freq.    1610.47  E(vib)   ...      17.66 
freq.    1674.68  E(vib)   ...      17.57 
freq.    1679.51  E(vib)   ...      17.57 
freq.    1690.48  E(vib)   ...      17.55 
freq.    1693.61  E(vib)   ...      17.55 
freq.    2129.43  E(vib)   ...      16.98 
freq.    3200.90  E(vib)   ...      15.65 
freq.    3201.95  E(vib)   ...      15.65 
freq.    3202.44  E(vib)   ...      15.64 
freq.    3209.10  E(vib)   ...      15.64 
freq.    3209.46  E(vib)   ...      15.64 
freq.    3217.44  E(vib)   ...      15.63 
freq.    3218.61  E(vib)   ...      15.63 
freq.    3219.26  E(vib)   ...      15.62 
freq.    3235.39  E(vib)   ...      15.60 
freq.    3236.52  E(vib)   ...      15.60 

------------
INNER ENERGY
------------

The inner energy is: U= E(el) + E(ZPE) + E(vib) + E(rot) + E(trans)
    E(el)   - is the total energy from the electronic structure calculation
              = E(kin-el) + E(nuc-el) + E(el-el) + E(nuc-nuc)
    E(ZPE)  - the the zero temperature vibrational energy from the frequency calculation
    E(vib)  - the the finite temperature correction to E(ZPE) due to population
              of excited vibrational states
    E(rot)  - is the rotational thermal energy
    E(trans)- is the translational thermal energy

Summary of contributions to the inner energy U:
Electronic energy                ...   -920.51942925 Eh
Zero point energy                ...      0.25824429 Eh     162.05 kcal/mol
Thermal vibrational correction   ...      2.79278659 Eh    1752.50 kcal/mol
Thermal rotational correction    ...      0.04750198 Eh      29.81 kcal/mol
Thermal translational correction ...      0.04750198 Eh      29.81 kcal/mol
-----------------------------------------------------------------------
Total thermal energy                   -917.37339442 Eh


Summary of corrections to the electronic energy:
(perhaps to be used in another calculation)
Total thermal correction                  2.88779054 Eh    1812.11 kcal/mol
Non-thermal (ZPE) correction              0.25824429 Eh     162.05 kcal/mol
-----------------------------------------------------------------------
Total correction                          3.14603483 Eh    1974.16 kcal/mol


--------
ENTHALPY
--------

The enthalpy is H = U + kB*T
                kB is Boltzmann's constant
Total free energy                 ...   -917.37339442 Eh 
Thermal Enthalpy correction       ...      0.03166893 Eh      19.87 kcal/mol
-----------------------------------------------------------------------
Total Enthalpy                    ...   -917.34172549 Eh


Note: Rotational entropy computed according to Herzberg 
Infrared and Raman Spectra, Chapter V,1, Van Nostrand Reinhold, 1945 
Point Group:  Cs, Symmetry Number:   1  
Rotational constants in cm-1:     0.011736     0.011123     0.005711 

Vibrational entropy computed according to the QRRHO of S. Grimme
Chem.Eur.J. 2012 18 9955


-------
ENTROPY
-------

The entropy contributions are T*S = T*(S(el)+S(vib)+S(rot)+S(trans))
     S(el)   - electronic entropy
     S(vib)  - vibrational entropy
     S(rot)  - rotational entropy
     S(trans)- translational entropy
The entropies will be listed as multiplied by the temperature to get
units of energy

Electronic entropy                ...      0.00000000 Eh      0.00 kcal/mol
Vibrational entropy               ...      9.08012905 Eh   5697.85 kcal/mol
Rotational entropy                ...      0.70926275 Eh    445.07 kcal/mol
Translational entropy             ...      0.96297166 Eh    604.27 kcal/mol
-----------------------------------------------------------------------
Final entropy term                ...     10.75236346 Eh   6747.20 kcal/mol

In case the symmetry of your molecule has not been determined correctly
or in case you have a reason to use a different symmetry number we print 
out the resulting rotational entropy values for sn=1,12 :
 --------------------------------------------------------
|  sn= 1 | S(rot)=       0.70926275 Eh    445.07 kcal/mol|
|  sn= 2 | S(rot)=       0.68731217 Eh    431.29 kcal/mol|
|  sn= 3 | S(rot)=       0.67447191 Eh    423.24 kcal/mol|
|  sn= 4 | S(rot)=       0.66536160 Eh    417.52 kcal/mol|
|  sn= 5 | S(rot)=       0.65829509 Eh    413.09 kcal/mol|
|  sn= 6 | S(rot)=       0.65252134 Eh    409.46 kcal/mol|
|  sn= 7 | S(rot)=       0.64763969 Eh    406.40 kcal/mol|
|  sn= 8 | S(rot)=       0.64341102 Eh    403.75 kcal/mol|
|  sn= 9 | S(rot)=       0.63968107 Eh    401.41 kcal/mol|
|  sn=10 | S(rot)=       0.63634452 Eh    399.31 kcal/mol|
|  sn=11 | S(rot)=       0.63332624 Eh    397.42 kcal/mol|
|  sn=12 | S(rot)=       0.63057076 Eh    395.69 kcal/mol|
 --------------------------------------------------------


-------------------
GIBBS FREE ENERGY
-------------------

The Gibbs free energy is G = H - T*S

Total enthalpy                    ...   -917.34172549 Eh 
Total entropy correction          ...    -10.75236346 Eh  -6747.20 kcal/mol
-----------------------------------------------------------------------
Final Gibbs free energy         ...   -928.09408895 Eh

For completeness - the Gibbs free energy minus the electronic energy
G-E(el)                           ...     -7.57465970 Eh  -4753.16 kcal/mol


Timings for individual modules:

Sum of individual times         ...    40784.066 sec (= 679.734 min)
GTO integral calculation        ...        6.336 sec (=   0.106 min)   0.0 %
SCF iterations                  ...     4571.140 sec (=  76.186 min)  11.2 %
SCF Gradient evaluation         ...      264.838 sec (=   4.414 min)   0.6 %
Geometry relaxation             ...        0.692 sec (=   0.012 min)   0.0 %
Analytical frequency calculation...    35941.060 sec (= 599.018 min)  88.1 %
                             ****ORCA TERMINATED NORMALLY****
TOTAL RUN TIME: 0 days 11 hours 19 minutes 48 seconds 500 msec
