
                                 *****************
                                 * O   R   C   A *
                                 *****************

                                            #,                                       
                                            ###                                      
                                            ####                                     
                                            #####                                    
                                            ######                                   
                                           ########,                                 
                                     ,,################,,,,,                         
                               ,,#################################,,                 
                          ,,##########################################,,             
                       ,#########################################, ''#####,          
                    ,#############################################,,   '####,        
                  ,##################################################,,,,####,       
                ,###########''''           ''''###############################       
              ,#####''   ,,,,##########,,,,          '''####'''          '####       
            ,##' ,,,,###########################,,,                        '##       
           ' ,,###''''                  '''############,,,                           
         ,,##''                                '''############,,,,        ,,,,,,###''
      ,#''                                            '''#######################'''  
     '                                                          ''''####''''         
             ,#######,   #######,   ,#######,      ##                                
            ,#'     '#,  ##    ##  ,#'     '#,    #''#        ######   ,####,        
            ##       ##  ##   ,#'  ##            #'  '#       #        #'  '#        
            ##       ##  #######   ##           ,######,      #####,   #    #        
            '#,     ,#'  ##    ##  '#,     ,#' ,#      #,         ##   #,  ,#        
             '#######'   ##     ##  '#######'  #'      '#     #####' # '####'        



                  #######################################################
                  #                        -***-                        #
                  #          Department of theory and spectroscopy      #
                  #    Directorship and core code : Frank Neese         #
                  #        Max Planck Institute fuer Kohlenforschung    #
                  #                Kaiser Wilhelm Platz 1               #
                  #                 D-45470 Muelheim/Ruhr               #
                  #                      Germany                        #
                  #                                                     #
                  #                  All rights reserved                #
                  #                        -***-                        #
                  #######################################################



                         Program Version 5.0.4 -  RELEASE  -

 With contributions from (in alphabetic order):
   Daniel Aravena         : Magnetic Suceptibility
   Michael Atanasov       : Ab Initio Ligand Field Theory (pilot matlab implementation)
   Alexander A. Auer      : GIAO ZORA, VPT2 properties, NMR spectrum
   Ute Becker             : Parallelization
   Giovanni Bistoni       : ED, misc. LED, open-shell LED, HFLD
   Martin Brehm           : Molecular dynamics
   Dmytro Bykov           : SCF Hessian
   Vijay G. Chilkuri      : MRCI spin determinant printing, contributions to CSF-ICE
   Dipayan Datta          : RHF DLPNO-CCSD density
   Achintya Kumar Dutta   : EOM-CC, STEOM-CC
   Dmitry Ganyushin       : Spin-Orbit,Spin-Spin,Magnetic field MRCI
   Miquel Garcia          : C-PCM and meta-GGA Hessian, CC/C-PCM, Gaussian charge scheme
   Yang Guo               : DLPNO-NEVPT2, F12-NEVPT2, CIM, IAO-localization
   Andreas Hansen         : Spin unrestricted coupled pair/coupled cluster methods
   Benjamin Helmich-Paris : MC-RPA, TRAH-SCF, COSX integrals
   Lee Huntington         : MR-EOM, pCC
   Robert Izsak           : Overlap fitted RIJCOSX, COSX-SCS-MP3, EOM
   Marcus Kettner         : VPT2
   Christian Kollmar      : KDIIS, OOCD, Brueckner-CCSD(T), CCSD density, CASPT2, CASPT2-K
   Simone Kossmann        : Meta GGA functionals, TD-DFT gradient, OOMP2, MP2 Hessian
   Martin Krupicka        : Initial AUTO-CI
   Lucas Lang             : DCDCAS
   Marvin Lechner         : AUTO-CI (C++ implementation), FIC-MRCC
   Dagmar Lenk            : GEPOL surface, SMD
   Dimitrios Liakos       : Extrapolation schemes; Compound Job, initial MDCI parallelization
   Dimitrios Manganas     : Further ROCIS development; embedding schemes
   Dimitrios Pantazis     : SARC Basis sets
   Anastasios Papadopoulos: AUTO-CI, single reference methods and gradients
   Taras Petrenko         : DFT Hessian,TD-DFT gradient, ASA, ECA, R-Raman, ABS, FL, XAS/XES, NRVS
   Peter Pinski           : DLPNO-MP2, DLPNO-MP2 Gradient
   Christoph Reimann      : Effective Core Potentials
   Marius Retegan         : Local ZFS, SOC
   Christoph Riplinger    : Optimizer, TS searches, QM/MM, DLPNO-CCSD(T), (RO)-DLPNO pert. Triples
   Tobias Risthaus        : Range-separated hybrids, TD-DFT gradient, RPA, STAB
   Michael Roemelt        : Original ROCIS implementation
   Masaaki Saitow         : Open-shell DLPNO-CCSD energy and density
   Barbara Sandhoefer     : DKH picture change effects
   Avijit Sen             : IP-ROCIS
   Kantharuban Sivalingam : CASSCF convergence, NEVPT2, FIC-MRCI
   Bernardo de Souza      : ESD, SOC TD-DFT
   Georgi Stoychev        : AutoAux, RI-MP2 NMR, DLPNO-MP2 response
   Willem Van den Heuvel  : Paramagnetic NMR
   Boris Wezisla          : Elementary symmetry handling
   Frank Wennmohs         : Technical directorship


 We gratefully acknowledge several colleagues who have allowed us to
 interface, adapt or use parts of their codes:
   Stefan Grimme, W. Hujo, H. Kruse, P. Pracht,  : VdW corrections, initial TS optimization,
                  C. Bannwarth, S. Ehlert          DFT functionals, gCP, sTDA/sTD-DF
   Ed Valeev, F. Pavosevic, A. Kumar             : LibInt (2-el integral package), F12 methods
   Garnet Chan, S. Sharma, J. Yang, R. Olivares  : DMRG
   Ulf Ekstrom                                   : XCFun DFT Library
   Mihaly Kallay                                 : mrcc  (arbitrary order and MRCC methods)
   Jiri Pittner, Ondrej Demel                    : Mk-CCSD
   Frank Weinhold                                : gennbo (NPA and NBO analysis)
   Christopher J. Cramer and Donald G. Truhlar   : smd solvation model
   Lars Goerigk                                  : TD-DFT with DH, B97 family of functionals
   V. Asgeirsson, H. Jonsson                     : NEB implementation
   FAccTs GmbH                                   : IRC, NEB, NEB-TS, DLPNO-Multilevel, CI-OPT
                                                   MM, QMMM, 2- and 3-layer-ONIOM, Crystal-QMMM,
                                                   LR-CPCM, SF, NACMEs, symmetry and pop. for TD-DFT,
                                                   nearIR, NL-DFT gradient (VV10), updates on ESD,
                                                   ML-optimized integration grids
   S Lehtola, MJT Oliveira, MAL Marques          : LibXC Library
   Liviu Ungur et al                             : ANISO software


 Your calculation uses the libint2 library for the computation of 2-el integrals
 For citations please refer to: http://libint.valeyev.net

 Your ORCA version has been built with support for libXC version: 5.1.0
 For citations please refer to: https://tddft.org/programs/libxc/

 This ORCA versions uses:
   CBLAS   interface :  Fast vector & matrix operations
   LAPACKE interface :  Fast linear algebra routines
   Shared memory     :  Shared parallel matrices


XCFun DFT library Copyright 2009-2010 Ulf Ekstrom and contributors.
See http://admol.org/xcfun for more information.
This is free software; see the source code for copying conditions.
There is ABSOLUTELY NO WARRANTY; not even for MERCHANTABILITY or FITNESS FOR A PARTICULAR PURPOSE.
For details see the documentation.
Scientific users of this library should cite U. Ekstrom, L. Visscher, R. Bast, A. J. Thorvaldsen and K. Ruud;
J.Chem.Theor.Comp. 2010, DOI: 10.1021/ct100117s
XCFun Version 0.99 

================================================================================

----- Orbital basis set information -----
Your calculation utilizes the basis: def2-TZVP
   F. Weigend and R. Ahlrichs, Phys. Chem. Chem. Phys. 7, 3297 (2005).

----- AuxJ basis set information -----
Your calculation utilizes the auxiliary basis: def2/J
   F. Weigend, Phys. Chem. Chem. Phys. 8, 1057 (2006).

================================================================================
                                        WARNINGS
                       Please study these warnings very carefully!
================================================================================

WARNING: Old DensityContainer found on disk!
         Will remove this file - 
         If you want to keep old densities, please start your calculation with a different basename. 


WARNING: Geometry Optimization
  ===> : Switching off AutoStart
         For restart on a previous wavefunction, please use MOREAD

INFO   : the flag for use of the SHARK integral package has been found!

================================================================================
                                       INPUT FILE
================================================================================
NAME = eight_seven.inp
|  1> !M062X def2-tzvp PAL4 TIGHTOPT FREQ defgrid3 tightscf
|  2> 
|  3> %freq
|  4> Temp 298.15,10,20,50,100,6000,8000,10000
|  5> end
|  6> 
|  7> %geom
|  8> maxiter 6000
|  9> end
| 10> 
| 11> 
| 12> 
| 13> * xyz 0 1
| 14>   C   2.45791983499341     -2.80268931379768     -0.00000793519644
| 15>   C   1.28608761308438     -3.49706883370209     -0.00003643606214
| 16>   C   0.03470547919465     -2.82650100714450     -0.00011895547508
| 17>   C   -1.19909611030651     -3.52926406052669     -0.00014738304165
| 18>   C   -2.38727532547159     -2.86387815648029     -0.00022974228995
| 19>   C   -2.43307513493588     -1.44447575303296     -0.00027036473986
| 20>   C   -3.65942351028343     -0.73056692575933     -0.00034869983218
| 21>   C   -3.68143184744779      0.63183680863156     -0.00038756598292
| 22>   C   -2.47654311552349      1.38171086633990     -0.00035715694906
| 23>   C   -2.47435650264592      2.81046534061019     -0.00039831731937
| 24>   C   -1.28561443050281      3.43802142880253     -0.00036151343355
| 25>   C   -0.02057223287027      2.83388218261706     -0.00029010794623
| 26>   C   1.21086686736911      3.53893902602452     -0.00025402239824
| 27>   C   2.39489324957599      2.86551829309080     -0.00018393811888
| 28>   C   2.43517090494280      1.44582754720977     -0.00014049013964
| 29>   C   3.65975900430544      0.72697243056351     -0.00006992784603
| 30>   C   3.67546036802878     -0.63516446298208     -0.00002698908555
| 31>   C   2.46811813995863     -1.38295180399054     -0.00005240219282
| 32>   C   1.24061543792698     -0.69496199420878     -0.00012711748511
| 33>   C   1.22474219035332      0.72698621586077     -0.00017741356338
| 34>   C   -0.01566516709535      1.42103164152461     -0.00024506128700
| 35>   C   -1.24356348643455      0.69923344199718     -0.00028346088976
| 36>   C   -1.22400277498297     -0.72338676000015     -0.00023734960533
| 37>   C   0.01693487392421     -1.41913103104816     -0.00016297130775
| 38>   H   3.40501735040542     -3.32906588787472      0.00005627444163
| 39>   H   1.29296308352502     -4.58060438188898      0.00000142672494
| 40>   H   -1.17896310310274     -4.61257131284734     -0.00011513591155
| 41>   H   -3.32129405982821     -3.41317602901623     -0.00025227227744
| 42>   H   -4.58586789409211     -1.29266910376159     -0.00037146429946
| 43>   H   -4.62408845924854      1.16575491725399     -0.00044556872067
| 44>   H   1.18854626437870      4.62103847897618     -0.00028959104089
| 45>   H   3.33130215861300      3.41052642430950     -0.00015763965944
| 46>   H   4.58800492413600      1.28586263822177     -0.00004835142171
| 47>   H   4.61660270482137     -1.17213723898180      0.00002811587814
| 48>   **                         ****END OF INPUT****
================================================================================

                       *****************************
                       * Geometry Optimization Run *
                       *****************************

Geometry optimization settings:
Update method            Update   .... BFGS
Choice of coordinates    CoordSys .... Z-matrix Internals
Initial Hessian          InHess   .... Almoef's Model

Convergence Tolerances:
Energy Change            TolE     ....  1.0000e-06 Eh
Max. Gradient            TolMAXG  ....  1.0000e-04 Eh/bohr
RMS Gradient             TolRMSG  ....  3.0000e-05 Eh/bohr
Max. Displacement        TolMAXD  ....  1.0000e-03 bohr
RMS Displacement         TolRMSD  ....  6.0000e-04 bohr
Strict Convergence                ....  False
------------------------------------------------------------------------------
                        ORCA OPTIMIZATION COORDINATE SETUP
------------------------------------------------------------------------------

The optimization will be done in new redundant internal coordinates
Making redundant internal coordinates   ...  (new redundants) done
Evaluating the initial hessian          ...  (Almloef) done
Evaluating the coordinates              ...  done
Calculating the B-matrix                .... done
Calculating the G-matrix                .... done
Diagonalizing the G-matrix              .... done
The first mode is                       ....  125
The number of degrees of freedom        ....   96

    -----------------------------------------------------------------
                    Redundant Internal Coordinates


    -----------------------------------------------------------------
         Definition                    Initial Value    Approx d2E/dq
    -----------------------------------------------------------------
      1. B(C   1,C   0)                  1.3621         0.692196   
      2. B(C   2,C   1)                  1.4197         0.560163   
      3. B(C   3,C   2)                  1.4199         0.559784   
      4. B(C   4,C   3)                  1.3618         0.692986   
      5. B(C   5,C   4)                  1.4201         0.559307   
      6. B(C   6,C   5)                  1.4190         0.561631   
      7. B(C   7,C   6)                  1.3626         0.691008   
      8. B(C   8,C   7)                  1.4192         0.561288   
      9. B(C   9,C   8)                  1.4288         0.541883   
     10. B(C  10,C   9)                  1.3442         0.739220   
     11. B(C  11,C  10)                  1.4019         0.598077   
     12. B(C  12,C  11)                  1.4190         0.561667   
     13. B(C  13,C  12)                  1.3621         0.692140   
     14. B(C  14,C  13)                  1.4203         0.559059   
     15. B(C  15,C  14)                  1.4200         0.559620   
     16. B(C  16,C  15)                  1.3622         0.691907   
     17. B(C  17,C  16)                  1.4202         0.559263   
     18. B(C  17,C   0)                  1.4198         0.560062   
     19. B(C  18,C  17)                  1.4072         0.586630   
     20. B(C  19,C  18)                  1.4220         0.555426   
     21. B(C  19,C  14)                  1.4078         0.585271   
     22. B(C  20,C  19)                  1.4214         0.556776   
     23. B(C  20,C  11)                  1.4129         0.574471   
     24. B(C  21,C  20)                  1.4243         0.550758   
     25. B(C  21,C   8)                  1.4093         0.582117   
     26. B(C  22,C  21)                  1.4228         0.553963   
     27. B(C  22,C   5)                  1.4078         0.585305   
     28. B(C  23,C  22)                  1.4227         0.554138   
     29. B(C  23,C  18)                  1.4219         0.555694   
     30. B(C  23,C   2)                  1.4075         0.585932   
     31. B(H  24,C   0)                  1.0835         0.368744   
     32. B(H  25,C   1)                  1.0836         0.368724   
     33. B(H  26,C   3)                  1.0835         0.368810   
     34. B(H  27,C   4)                  1.0836         0.368710   
     35. B(H  28,C   6)                  1.0836         0.368624   
     36. B(H  29,C   7)                  1.0834         0.368991   
     37. B(H  30,C  12)                  1.0823         0.370391   
     38. B(H  31,C  13)                  1.0835         0.368850   
     39. B(H  32,C  15)                  1.0835         0.368786   
     40. B(H  33,C  16)                  1.0836         0.368729   
     41. A(C   1,C   0,C  17)          121.0608         0.434729   
     42. A(C   1,C   0,H  24)          120.2864         0.361028   
     43. A(C  17,C   0,H  24)          118.6528         0.348293   
     44. A(C   0,C   1,C   2)          121.1656         0.434743   
     45. A(C   2,C   1,H  25)          118.5487         0.348301   
     46. A(C   0,C   1,H  25)          120.2857         0.361025   
     47. A(C   3,C   2,C  23)          118.9421         0.421892   
     48. A(C   1,C   2,C  23)          118.9086         0.421943   
     49. A(C   1,C   2,C   3)          122.1494         0.418521   
     50. A(C   2,C   3,H  26)          118.6008         0.348275   
     51. A(C   4,C   3,H  26)          120.3137         0.361109   
     52. A(C   2,C   3,C   4)          121.0855         0.434779   
     53. A(C   5,C   4,H  27)          118.6117         0.348209   
     54. A(C   3,C   4,H  27)          120.2911         0.361092   
     55. A(C   3,C   4,C   5)          121.0971         0.434712   
     56. A(C   4,C   5,C   6)          122.0536         0.418653   
     57. A(C   6,C   5,C  22)          118.9827         0.422060   
     58. A(C   4,C   5,C  22)          118.9637         0.421748   
     59. A(C   5,C   6,H  28)          118.5480         0.348439   
     60. A(C   5,C   6,C   7)          121.1310         0.434813   
     61. A(C   7,C   6,H  28)          120.3210         0.360902   
     62. A(C   6,C   7,C   8)          120.9710         0.434765   
     63. A(C   6,C   7,H  29)          120.4526         0.360963   
     64. A(C   8,C   7,H  29)          118.5764         0.348461   
     65. A(C   7,C   8,C   9)          121.9842         0.416254   
     66. A(C   9,C   8,C  21)          118.8777         0.418964   
     67. A(C   7,C   8,C  21)          119.1382         0.421603   
     68. A(C   8,C   9,C  10)          117.9180         0.437299   
     69. A(C   9,C  10,C  11)          126.6422         0.445165   
     70. A(C  12,C  11,C  20)          119.5942         0.420659   
     71. A(C  10,C  11,C  20)          115.7265         0.425408   
     72. A(C  10,C  11,C  12)          124.6793         0.423696   
     73. A(C  11,C  12,H  30)          118.6115         0.348723   
     74. A(C  11,C  12,C  13)          120.5776         0.434946   
     75. A(C  13,C  12,H  30)          120.8109         0.361297   
     76. A(C  12,C  13,H  31)          120.1705         0.361040   
     77. A(C  12,C  13,C  14)          121.2544         0.434582   
     78. A(C  14,C  13,H  31)          118.5751         0.348205   
     79. A(C  13,C  14,C  15)          122.0388         0.418352   
     80. A(C  15,C  14,C  19)          118.8814         0.421785   
     81. A(C  13,C  14,C  19)          119.0799         0.421710   
     82. A(C  14,C  15,C  16)          121.0741         0.434634   
     83. A(C  16,C  15,H  32)          120.3914         0.361009   
     84. A(C  14,C  15,H  32)          118.5345         0.348254   
     85. A(C  17,C  16,H  33)          118.5202         0.348208   
     86. A(C  15,C  16,C  17)          121.1123         0.434585   
     87. A(C  15,C  16,H  33)          120.3675         0.361000   
     88. A(C  16,C  17,C  18)          118.9576         0.421912   
     89. A(C   0,C  17,C  18)          118.8582         0.422020   
     90. A(C   0,C  17,C  16)          122.1842         0.418438   
     91. A(C  17,C  18,C  19)          119.9093         0.421394   
     92. A(C  19,C  18,C  23)          119.9773         0.417343   
     93. A(C  17,C  18,C  23)          120.1134         0.421430   
     94. A(C  18,C  19,C  20)          119.8679         0.417487   
     95. A(C  14,C  19,C  20)          120.0667         0.421402   
     96. A(C  14,C  19,C  18)          120.0654         0.421219   
     97. A(C  11,C  20,C  19)          119.4273         0.420004   
     98. A(C  19,C  20,C  21)          120.3233         0.416860   
     99. A(C  11,C  20,C  21)          120.2494         0.419190   
    100. A(C  20,C  21,C  22)          119.6606         0.416485   
    101. A(C   8,C  21,C  22)          119.7531         0.420615   
    102. A(C   8,C  21,C  20)          120.5863         0.420180   
    103. A(C  21,C  22,C  23)          120.0654         0.416938   
    104. A(C   5,C  22,C  23)          119.9106         0.421049   
    105. A(C   5,C  22,C  21)          120.0240         0.421025   
    106. A(C  18,C  23,C  22)          120.1055         0.417170   
    107. A(C   2,C  23,C  22)          120.0010         0.421129   
    108. A(C   2,C  23,C  18)          119.8934         0.421340   
    109. D(H  25,C   1,C   0,C  17)   -179.9998         0.033683   
    110. D(H  25,C   1,C   0,H  24)     -0.0002         0.033683   
    111. D(C   2,C   1,C   0,C  17)      0.0003         0.033683   
    112. D(C   2,C   1,C   0,H  24)    179.9999         0.033683   
    113. D(C  23,C   2,C   1,H  25)    179.9997         0.021494   
    114. D(C   3,C   2,C   1,H  25)      0.0003         0.021494   
    115. D(C  23,C   2,C   1,C   0)     -0.0004         0.021494   
    116. D(C   3,C   2,C   1,C   0)   -179.9999         0.021494   
    117. D(H  26,C   3,C   2,C   1)     -0.0006         0.021464   
    118. D(C   4,C   3,C   2,C  23)      0.0007         0.021464   
    119. D(H  26,C   3,C   2,C  23)    179.9999         0.021464   
    120. D(C   4,C   3,C   2,C   1)   -179.9999         0.021464   
    121. D(H  27,C   4,C   3,C   2)    179.9999         0.033766   
    122. D(C   5,C   4,C   3,H  26)    179.9999         0.033766   
    123. D(C   5,C   4,C   3,C   2)     -0.0009         0.033766   
    124. D(H  27,C   4,C   3,H  26)      0.0007         0.033766   
    125. D(C   6,C   5,C   4,H  27)     -0.0005         0.021426   
    126. D(C  22,C   5,C   4,H  27)    179.9998         0.021426   
    127. D(C  22,C   5,C   4,C   3)      0.0006         0.021426   
    128. D(C   6,C   5,C   4,C   3)   -179.9996         0.021426   
    129. D(H  28,C   6,C   5,C   4)      0.0004         0.021611   
    130. D(H  28,C   6,C   5,C  22)   -179.9999         0.021611   
    131. D(C   7,C   6,C   5,C  22)     -0.0002         0.021611   
    132. D(C   7,C   6,C   5,C   4)   -180.0000         0.021611   
    133. D(H  29,C   7,C   6,H  28)     -0.0002         0.033558   
    134. D(H  29,C   7,C   6,C   5)   -179.9999         0.033558   
    135. D(C   8,C   7,C   6,H  28)    179.9999         0.033558   
    136. D(C   8,C   7,C   6,C   5)      0.0003         0.033558   
    137. D(C  21,C   8,C   7,C   6)     -0.0001         0.021584   
    138. D(C   9,C   8,C   7,H  29)      0.0001         0.021584   
    139. D(C   9,C   8,C   7,C   6)    179.9999         0.021584   
    140. D(C  21,C   8,C   7,H  29)   -179.9999         0.021584   
    141. D(C  10,C   9,C   8,C  21)     -0.0001         0.018235   
    142. D(C  10,C   9,C   8,C   7)    179.9998         0.018235   
    143. D(C  11,C  10,C   9,C   8)      0.0002         0.031153   
    144. D(C  20,C  11,C  10,C   9)     -0.0004         0.022365   
    145. D(C  12,C  11,C  10,C   9)    180.0000         0.022365   
    146. D(H  30,C  12,C  11,C  20)    180.0000         0.021614   
    147. D(H  30,C  12,C  11,C  10)     -0.0004         0.021614   
    148. D(C  13,C  12,C  11,C  20)      0.0004         0.021614   
    149. D(C  13,C  12,C  11,C  10)    180.0000         0.021614   
    150. D(H  31,C  13,C  12,H  30)      0.0003         0.033677   
    151. D(H  31,C  13,C  12,C  11)    179.9999         0.033677   
    152. D(C  14,C  13,C  12,H  30)   -179.9998         0.033677   
    153. D(C  14,C  13,C  12,C  11)     -0.0002         0.033677   
    154. D(C  19,C  14,C  13,H  31)   -179.9998         0.021406   
    155. D(C  19,C  14,C  13,C  12)      0.0003         0.021406   
    156. D(C  15,C  14,C  13,H  31)     -0.0003         0.021406   
    157. D(C  15,C  14,C  13,C  12)    179.9999         0.021406   
    158. D(H  32,C  15,C  14,C  19)    179.9996         0.021451   
    159. D(H  32,C  15,C  14,C  13)      0.0000         0.021451   
    160. D(C  16,C  15,C  14,C  19)     -0.0005         0.021451   
    161. D(C  16,C  15,C  14,C  13)    179.9999         0.021451   
    162. D(H  33,C  16,C  15,H  32)     -0.0001         0.033652   
    163. D(H  33,C  16,C  15,C  14)   -179.9999         0.033652   
    164. D(C  17,C  16,C  15,H  32)    179.9999         0.033652   
    165. D(C  17,C  16,C  15,C  14)      0.0001         0.033652   
    166. D(C   0,C  17,C  16,C  15)   -180.0000         0.021423   
    167. D(C  18,C  17,C   0,H  24)   -179.9996         0.021486   
    168. D(C  18,C  17,C   0,C   1)     -0.0000         0.021486   
    169. D(C  16,C  17,C   0,H  24)      0.0005         0.021486   
    170. D(C   0,C  17,C  16,H  33)      0.0000         0.021423   
    171. D(C  16,C  17,C   0,C   1)   -179.9999         0.021486   
    172. D(C  18,C  17,C  16,H  33)   -179.9998         0.021423   
    173. D(C  18,C  17,C  16,C  15)      0.0002         0.021423   
    174. D(C  23,C  18,C  17,C  16)    179.9996         0.023669   
    175. D(C  23,C  18,C  17,C   0)     -0.0003         0.023669   
    176. D(C  19,C  18,C  17,C  16)      0.0001         0.023669   
    177. D(C  19,C  18,C  17,C   0)   -179.9998         0.023669   
    178. D(C  20,C  19,C  18,C  23)      0.0009         0.021119   
    179. D(C  20,C  19,C  18,C  17)   -179.9996         0.021119   
    180. D(C  14,C  19,C  18,C  23)    179.9999         0.021119   
    181. D(C  14,C  19,C  18,C  17)     -0.0006         0.021119   
    182. D(C  20,C  19,C  14,C  15)    179.9999         0.023554   
    183. D(C  20,C  19,C  14,C  13)     -0.0006         0.023554   
    184. D(C  18,C  19,C  14,C  15)      0.0008         0.023554   
    185. D(C  18,C  19,C  14,C  13)   -179.9996         0.023554   
    186. D(C  21,C  20,C  19,C  18)     -0.0010         0.021225   
    187. D(C  21,C  20,C  19,C  14)    180.0000         0.021225   
    188. D(C  11,C  20,C  19,C  18)    179.9998         0.021225   
    189. D(C  11,C  20,C  19,C  14)      0.0007         0.021225   
    190. D(C  21,C  20,C  11,C  12)   -179.9999         0.022654   
    191. D(C  21,C  20,C  11,C  10)      0.0005         0.022654   
    192. D(C  19,C  20,C  11,C  12)     -0.0006         0.022654   
    193. D(C  19,C  20,C  11,C  10)    179.9997         0.022654   
    194. D(C  22,C  21,C  20,C  19)      0.0008         0.020753   
    195. D(C  22,C  21,C  20,C  11)   -180.0000         0.020753   
    196. D(C   8,C  21,C  20,C  19)   -179.9997         0.020753   
    197. D(C   8,C  21,C  20,C  11)     -0.0004         0.020753   
    198. D(C  22,C  21,C   8,C   9)    179.9998         0.023289   
    199. D(C  22,C  21,C   8,C   7)     -0.0002         0.023289   
    200. D(C  20,C  21,C   8,C   9)      0.0003         0.023289   
    201. D(C  20,C  21,C   8,C   7)   -179.9997         0.023289   
    202. D(C  23,C  22,C  21,C  20)     -0.0004         0.021004   
    203. D(C  23,C  22,C  21,C   8)    180.0000         0.021004   
    204. D(C   5,C  22,C  21,C  20)    179.9998         0.021004   
    205. D(C   5,C  22,C  21,C   8)      0.0002         0.021004   
    206. D(C  23,C  22,C   5,C   6)   -179.9998         0.023557   
    207. D(C  23,C  22,C   5,C   4)     -0.0001         0.023557   
    208. D(C  21,C  22,C   5,C   6)     -0.0000         0.023557   
    209. D(C  21,C  22,C   5,C   4)    179.9997         0.023557   
    210. D(C  18,C  23,C  22,C  21)      0.0003         0.021017   
    211. D(C  18,C  23,C  22,C   5)   -179.9999         0.021017   
    212. D(C   2,C  23,C  22,C   5)     -0.0002         0.021017   
    213. D(C  22,C  23,C  18,C  19)     -0.0005         0.021140   
    214. D(C  22,C  23,C  18,C  17)    179.9999         0.021140   
    215. D(C   2,C  23,C  18,C  19)    179.9997         0.021140   
    216. D(C   2,C  23,C  18,C  17)      0.0002         0.021140   
    217. D(C  22,C  23,C   2,C   3)     -0.0001         0.023610   
    218. D(C   2,C  23,C  22,C  21)   -179.9999         0.021017   
    219. D(C  22,C  23,C   2,C   1)   -179.9996         0.023610   
    220. D(C  18,C  23,C   2,C   3)    179.9996         0.023610   
    221. D(C  18,C  23,C   2,C   1)      0.0001         0.023610   
    -----------------------------------------------------------------

Number of atoms                         .... 34
Number of degrees of freedom            .... 221

         *************************************************************
         *                GEOMETRY OPTIMIZATION CYCLE   1            *
         *************************************************************
---------------------------------
CARTESIAN COORDINATES (ANGSTROEM)
---------------------------------
  C      2.457920   -2.802689   -0.000008
  C      1.286088   -3.497069   -0.000036
  C      0.034705   -2.826501   -0.000119
  C     -1.199096   -3.529264   -0.000147
  C     -2.387275   -2.863878   -0.000230
  C     -2.433075   -1.444476   -0.000270
  C     -3.659424   -0.730567   -0.000349
  C     -3.681432    0.631837   -0.000388
  C     -2.476543    1.381711   -0.000357
  C     -2.474357    2.810465   -0.000398
  C     -1.285614    3.438021   -0.000362
  C     -0.020572    2.833882   -0.000290
  C      1.210867    3.538939   -0.000254
  C      2.394893    2.865518   -0.000184
  C      2.435171    1.445828   -0.000140
  C      3.659759    0.726972   -0.000070
  C      3.675460   -0.635164   -0.000027
  C      2.468118   -1.382952   -0.000052
  C      1.240615   -0.694962   -0.000127
  C      1.224742    0.726986   -0.000177
  C     -0.015665    1.421032   -0.000245
  C     -1.243563    0.699233   -0.000283
  C     -1.224003   -0.723387   -0.000237
  C      0.016935   -1.419131   -0.000163
  H      3.405017   -3.329066    0.000056
  H      1.292963   -4.580604    0.000001
  H     -1.178963   -4.612571   -0.000115
  H     -3.321294   -3.413176   -0.000252
  H     -4.585868   -1.292669   -0.000371
  H     -4.624088    1.165755   -0.000446
  H      1.188546    4.621038   -0.000290
  H      3.331302    3.410526   -0.000158
  H      4.588005    1.285863   -0.000048
  H      4.616603   -1.172137    0.000028

----------------------------
CARTESIAN COORDINATES (A.U.)
----------------------------
  NO LB      ZA    FRAG     MASS         X           Y           Z
   0 C     6.0000    0    12.011    4.644795   -5.296315   -0.000015
   1 C     6.0000    0    12.011    2.430353   -6.608502   -0.000069
   2 C     6.0000    0    12.011    0.065584   -5.341313   -0.000225
   3 C     6.0000    0    12.011   -2.265963   -6.669343   -0.000279
   4 C     6.0000    0    12.011   -4.511297   -5.411945   -0.000434
   5 C     6.0000    0    12.011   -4.597846   -2.729664   -0.000511
   6 C     6.0000    0    12.011   -6.915308   -1.380571   -0.000659
   7 C     6.0000    0    12.011   -6.956898    1.193999   -0.000732
   8 C     6.0000    0    12.011   -4.679988    2.611055   -0.000675
   9 C     6.0000    0    12.011   -4.675856    5.311010   -0.000753
  10 C     6.0000    0    12.011   -2.429459    6.496919   -0.000683
  11 C     6.0000    0    12.011   -0.038876    5.355261   -0.000548
  12 C     6.0000    0    12.011    2.288207    6.687626   -0.000480
  13 C     6.0000    0    12.011    4.525692    5.415045   -0.000348
  14 C     6.0000    0    12.011    4.601806    2.732218   -0.000265
  15 C     6.0000    0    12.011    6.915942    1.373779   -0.000132
  16 C     6.0000    0    12.011    6.945614   -1.200287   -0.000051
  17 C     6.0000    0    12.011    4.664067   -2.613400   -0.000099
  18 C     6.0000    0    12.011    2.344423   -1.313288   -0.000240
  19 C     6.0000    0    12.011    2.314427    1.373805   -0.000335
  20 C     6.0000    0    12.011   -0.029603    2.685361   -0.000463
  21 C     6.0000    0    12.011   -2.349994    1.321360   -0.000536
  22 C     6.0000    0    12.011   -2.313030   -1.367003   -0.000449
  23 C     6.0000    0    12.011    0.032002   -2.681769   -0.000308
  24 H     1.0000    0     1.008    6.434550   -6.291023    0.000106
  25 H     1.0000    0     1.008    2.443346   -8.656088    0.000003
  26 H     1.0000    0     1.008   -2.227917   -8.716497   -0.000218
  27 H     1.0000    0     1.008   -6.276336   -6.449968   -0.000477
  28 H     1.0000    0     1.008   -8.666034   -2.442791   -0.000702
  29 H     1.0000    0     1.008   -8.738261    2.202958   -0.000842
  30 H     1.0000    0     1.008    2.246027    8.732497   -0.000547
  31 H     1.0000    0     1.008    6.295249    6.444961   -0.000298
  32 H     1.0000    0     1.008    8.670073    2.429928   -0.000091
  33 H     1.0000    0     1.008    8.724115   -2.215018    0.000053

--------------------------------
INTERNAL COORDINATES (ANGSTROEM)
--------------------------------
 C      0   0   0     0.000000000000     0.00000000     0.00000000
 C      1   0   0     1.362113679096     0.00000000     0.00000000
 C      2   1   0     1.419724783837   121.16560922     0.00000000
 C      3   2   1     1.419909247897   122.14936829   180.00012514
 C      4   3   2     1.361803310114   121.08549338   180.00014219
 C      5   4   3     1.420141122251   121.09714964     0.00000000
 C      6   5   4     1.419012388076   122.05359964   180.00035250
 C      7   6   5     1.362581485232   121.13095823   180.00004575
 C      8   7   6     1.419178621480   120.97098694     0.00000000
 C      9   8   7     1.428756148094   121.98415257   179.99993018
 C     10   9   8     1.344222585462   117.91798224   179.99982824
 C     11  10   9     1.401897284280   126.64222024     0.00000000
 C     12  11  10     1.418995211879   124.67934702   179.99996824
 C     13  12  11     1.362135809022   120.57756794   179.99997748
 C     14  13  12     1.420261984758   121.25435076     0.00000000
 C     15  14  13     1.419988977707   122.03878309   179.99987718
 C     16  15  14     1.362227386094   121.07411591   179.99989307
 C      1   2   3     1.419774138430   121.06079764     0.00000000
 C     18   1   2     1.407157726568   118.85816447     0.00000000
 C     15  14  13     1.407789236399   119.07985977     0.00000000
 C     12  11  10     1.412859063314   115.72648181     0.00000000
 C      9   8   7     1.409260162609   119.13818147     0.00000000
 C      6   5   4     1.407773173691   118.96366889     0.00000000
 C      3   2   1     1.407482165417   118.90857994     0.00000000
 H      1   2   3     1.083543264277   120.28639352   179.99993510
 H      2   1   3     1.083557362447   120.28567582   179.99985180
 H      4   3   2     1.083494320220   118.60077089     0.00000000
 H      5   4   3     1.083567787178   120.29111832   179.99989480
 H      7   6   5     1.083631881832   118.54804936     0.00000000
 H      8   7   6     1.083360529949   120.45257468   180.00011038
 H     13  12  11     1.082329634012   118.61148842     0.00000000
 H     14  13  12     1.083464585813   120.17050164   179.99994437
 H     16  15  14     1.083512229910   118.53445959     0.00000000
 H     17  16  15     1.083553719621   120.36752368   180.00008314

---------------------------
INTERNAL COORDINATES (A.U.)
---------------------------
 C      0   0   0     0.000000000000     0.00000000     0.00000000
 C      1   0   0     2.574021816758     0.00000000     0.00000000
 C      2   1   0     2.682891026993   121.16560922     0.00000000
 C      3   2   1     2.683239613547   122.14936829   180.00012514
 C      4   3   2     2.573435304383   121.08549338   180.00014219
 C      5   4   3     2.683677792575   121.09714964     0.00000000
 C      6   5   4     2.681544794105   122.05359964   180.00035250
 C      7   6   5     2.574905842241   121.13095823   180.00004575
 C      8   7   6     2.681858929714   120.97098694     0.00000000
 C      9   8   7     2.699957832055   121.98415257   179.99993018
 C     10   9   8     2.540212549554   117.91798224   179.99982824
 C     11  10   9     2.649201935177   126.64222024     0.00000000
 C     12  11  10     2.681512335797   124.67934702   179.99996824
 C     13  12  11     2.574063636258   120.57756794   179.99997748
 C     14  13  12     2.683906189613   121.25435076     0.00000000
 C     15  14  13     2.683390281052   122.03878309   179.99987718
 C     16  15  14     2.574236691845   121.07411591   179.99989307
 C      1   2   3     2.682984293657   121.06079764     0.00000000
 C     18   1   2     2.659142730445   118.85816447     0.00000000
 C     15  14  13     2.660336111077   119.07985977     0.00000000
 C     12  11  10     2.669916695492   115.72648181     0.00000000
 C      9   8   7     2.663115758776   119.13818147     0.00000000
 C      6   5   4     2.660305756958   118.96366889     0.00000000
 C      3   2   1     2.659755831016   118.90857994     0.00000000
 H      1   2   3     2.047600023738   120.28639352   179.99993510
 H      2   1   3     2.047626665418   120.28567582   179.99985180
 H      4   3   2     2.047507532875   118.60077089     0.00000000
 H      5   4   3     2.047646365305   120.29111832   179.99989480
 H      7   6   5     2.047767486649   118.54804936     0.00000000
 H      8   7   6     2.047254705903   120.45257468   180.00011038
 H     13  12  11     2.045306594911   118.61148842     0.00000000
 H     14  13  12     2.047451342988   120.17050164   179.99994437
 H     16  15  14     2.047541377284   118.53445959     0.00000000
 H     17  16  15     2.047619781476   120.36752368   180.00008314

---------------------
BASIS SET INFORMATION
---------------------
There are 2 groups of distinct atoms

 Group   1 Type C   : 11s6p2d1f contracted to 5s3p2d1f pattern {62111/411/11/1}
 Group   2 Type H   : 5s1p contracted to 3s1p pattern {311/1}

Atom   0C    basis set group =>   1
Atom   1C    basis set group =>   1
Atom   2C    basis set group =>   1
Atom   3C    basis set group =>   1
Atom   4C    basis set group =>   1
Atom   5C    basis set group =>   1
Atom   6C    basis set group =>   1
Atom   7C    basis set group =>   1
Atom   8C    basis set group =>   1
Atom   9C    basis set group =>   1
Atom  10C    basis set group =>   1
Atom  11C    basis set group =>   1
Atom  12C    basis set group =>   1
Atom  13C    basis set group =>   1
Atom  14C    basis set group =>   1
Atom  15C    basis set group =>   1
Atom  16C    basis set group =>   1
Atom  17C    basis set group =>   1
Atom  18C    basis set group =>   1
Atom  19C    basis set group =>   1
Atom  20C    basis set group =>   1
Atom  21C    basis set group =>   1
Atom  22C    basis set group =>   1
Atom  23C    basis set group =>   1
Atom  24H    basis set group =>   2
Atom  25H    basis set group =>   2
Atom  26H    basis set group =>   2
Atom  27H    basis set group =>   2
Atom  28H    basis set group =>   2
Atom  29H    basis set group =>   2
Atom  30H    basis set group =>   2
Atom  31H    basis set group =>   2
Atom  32H    basis set group =>   2
Atom  33H    basis set group =>   2
---------------------------------
AUXILIARY/J BASIS SET INFORMATION
---------------------------------
There are 2 groups of distinct atoms

 Group   1 Type C   : 12s5p4d2f1g contracted to 6s4p3d1f1g pattern {711111/2111/211/2/1}
 Group   2 Type H   : 5s2p1d contracted to 3s1p1d pattern {311/2/1}

Atom   0C    basis set group =>   1
Atom   1C    basis set group =>   1
Atom   2C    basis set group =>   1
Atom   3C    basis set group =>   1
Atom   4C    basis set group =>   1
Atom   5C    basis set group =>   1
Atom   6C    basis set group =>   1
Atom   7C    basis set group =>   1
Atom   8C    basis set group =>   1
Atom   9C    basis set group =>   1
Atom  10C    basis set group =>   1
Atom  11C    basis set group =>   1
Atom  12C    basis set group =>   1
Atom  13C    basis set group =>   1
Atom  14C    basis set group =>   1
Atom  15C    basis set group =>   1
Atom  16C    basis set group =>   1
Atom  17C    basis set group =>   1
Atom  18C    basis set group =>   1
Atom  19C    basis set group =>   1
Atom  20C    basis set group =>   1
Atom  21C    basis set group =>   1
Atom  22C    basis set group =>   1
Atom  23C    basis set group =>   1
Atom  24H    basis set group =>   2
Atom  25H    basis set group =>   2
Atom  26H    basis set group =>   2
Atom  27H    basis set group =>   2
Atom  28H    basis set group =>   2
Atom  29H    basis set group =>   2
Atom  30H    basis set group =>   2
Atom  31H    basis set group =>   2
Atom  32H    basis set group =>   2
Atom  33H    basis set group =>   2


           ************************************************************
           *        Program running with 4 parallel MPI-processes     *
           *              working on a common directory               *
           ************************************************************
------------------------------------------------------------------------------
                           ORCA GTO INTEGRAL CALCULATION
                           -- RI-GTO INTEGRALS CHOSEN --
------------------------------------------------------------------------------
------------------------------------------------------------------------------
                   ___                                                        
                  /   \      - P O W E R E D   B Y -                         
                 /     \                                                     
                 |  |  |   _    _      __       _____    __    __             
                 |  |  |  | |  | |    /  \     |  _  \  |  |  /  |          
                  \  \/   | |  | |   /    \    | | | |  |  | /  /          
                 / \  \   | |__| |  /  /\  \   | |_| |  |  |/  /          
                |  |  |   |  __  | /  /__\  \  |    /   |      \           
                |  |  |   | |  | | |   __   |  |    \   |  |\   \          
                \     /   | |  | | |  |  |  |  | |\  \  |  | \   \       
                 \___/    |_|  |_| |__|  |__|  |_| \__\ |__|  \__/        
                                                                              
                      - O R C A' S   B I G   F R I E N D -                    
                                      &                                       
                       - I N T E G R A L  F E E D E R -                       
                                                                              
 v1 FN, 2020, v2 2021                                                         
------------------------------------------------------------------------------


Reading SHARK input file eight_seven.SHARKINP.tmp ... ok
----------------------
SHARK INTEGRAL PACKAGE
----------------------

Number of atoms                             ...     34
Number of basis functions                   ...    804
Number of shells                            ...    304
Maximum angular momentum                    ...      3
Integral batch strategy                     ... SHARK/LIBINT Hybrid
RI-J (if used) integral strategy            ... SPLIT-RIJ (Revised 2003 algorithm where possible)
Printlevel                                  ...      1
Contraction scheme used                     ... SEGMENTED contraction
Coulomb Range Separation                    ... NOT USED
Exchange Range Separation                   ... NOT USED
Finite Nucleus Model                        ... NOT USED
Auxiliary Coulomb fitting basis             ... AVAILABLE
   # of basis functions in Aux-J            ...   1286
   # of shells in Aux-J                     ...    410
   Maximum angular momentum in Aux-J        ...      4
Auxiliary J/K fitting basis                 ... NOT available
Auxiliary Correlation fitting basis         ... NOT available
Auxiliary 'external' fitting basis          ... NOT available
Integral threshold                          ...     2.500000e-11
Primitive cut-off                           ...     2.500000e-12
Primitive pair pre-selection threshold      ...     2.500000e-12

Calculating pre-screening integrals         ... done (  0.2 sec) Dimension = 304
Organizing shell pair data                  ... done (  0.8 sec)
Shell pair information
Total number of shell pairs                 ...     46360
Shell pairs after pre-screening             ...     35752
Total number of primitive shell pairs       ...    146628
Primitive shell pairs kept                  ...     75617
          la=0 lb=0:   8088 shell pairs
          la=1 lb=0:   9825 shell pairs
          la=1 lb=1:   2941 shell pairs
          la=2 lb=0:   5414 shell pairs
          la=2 lb=1:   3293 shell pairs
          la=2 lb=2:    929 shell pairs
          la=3 lb=0:   2542 shell pairs
          la=3 lb=1:   1589 shell pairs
          la=3 lb=2:    894 shell pairs
          la=3 lb=3:    237 shell pairs

Calculating one electron integrals          ... done (  0.4 sec)
Calculating RI/J V-Matrix + Cholesky decomp.... done (  0.3 sec)
Calculating Nuclear repulsion               ... done (  0.0 sec) ENN=   1801.060073340913 Eh

SHARK setup successfully completed in   3.0 seconds

Maximum memory used throughout the entire GTOINT-calculation: 52.5 MB


           ************************************************************
           *        Program running with 4 parallel MPI-processes     *
           *              working on a common directory               *
           ************************************************************
-------------------------------------------------------------------------------
                                 ORCA SCF
-------------------------------------------------------------------------------

------------
SCF SETTINGS
------------
Hamiltonian:
 Density Functional     Method          .... DFT(GTOs)
 Exchange Functional    Exchange        .... M062X
 Correlation Functional Correlation     .... M062X
 Gradients option       PostSCFGGA      .... off
 Hybrid DFT is turned on
   Fraction HF Exchange ScalHFX         ....  0.540000
   Scaling of DF-GGA-X  ScalDFX         ....  0.460000
   Scaling of DF-GGA-C  ScalDFC         ....  1.000000
   Scaling of DF-LDA-C  ScalLDAC        ....  1.000000
   Perturbative correction              ....  0.000000
   Density functional embedding theory  .... OFF
 RI-approximation to the Coulomb term is turned on
   Number of AuxJ basis functions       .... 1286
   RIJ-COSX (HFX calculated with COS-X)).... on


General Settings:
 Integral files         IntName         .... eight_seven
 Hartree-Fock type      HFTyp           .... RHF
 Total Charge           Charge          ....    0
 Multiplicity           Mult            ....    1
 Number of Electrons    NEL             ....  154
 Basis Dimension        Dim             ....  804
 Nuclear Repulsion      ENuc            ....   1801.0600733409 Eh

Convergence Acceleration:
 DIIS                   CNVDIIS         .... on
   Start iteration      DIISMaxIt       ....    12
   Startup error        DIISStart       ....  0.200000
   # of expansion vecs  DIISMaxEq       ....     5
   Bias factor          DIISBfac        ....   1.050
   Max. coefficient     DIISMaxC        ....  10.000
 Trust-Rad. Augm. Hess. CNVTRAH         .... auto
   Auto Start mean grad. ratio tolernc. ....  1.125000
   Auto Start start iteration           ....    20
   Auto Start num. interpolation iter.  ....    10
   Max. Number of Micro iterations      ....    16
   Max. Number of Macro iterations      .... Maxiter - #DIIS iter
   Number of Davidson start vectors     ....     2
   Converg. threshold I  (grad. norm)   ....   1.000e-05
   Converg. threshold II (energy diff.) ....   1.000e-08
   Grad. Scal. Fac. for Micro threshold ....   0.100
   Minimum threshold for Micro iter.    ....   0.010
   NR start threshold (gradient norm)   ....   0.001
   Initial trust radius                 ....   0.400
   Minimum AH scaling param. (alpha)    ....   1.000
   Maximum AH scaling param. (alpha)    .... 1000.000
   Orbital update algorithm             .... Taylor
   White noise on init. David. guess    .... on
   Maximum white noise                  ....   0.010
   Quad. conv. algorithm                .... NR
 SOSCF                  CNVSOSCF        .... on
   Start iteration      SOSCFMaxIt      ....   150
   Startup grad/error   SOSCFStart      ....  0.003300
 Level Shifting         CNVShift        .... on
   Level shift para.    LevelShift      ....    0.2500
   Turn off err/grad.   ShiftErr        ....    0.0010
 Zerner damping         CNVZerner       .... off
 Static damping         CNVDamp         .... on
   Fraction old density DampFac         ....    0.7000
   Max. Damping (<1)    DampMax         ....    0.9800
   Min. Damping (>=0)   DampMin         ....    0.0000
   Turn off err/grad.   DampErr         ....    0.1000
 Fernandez-Rico         CNVRico         .... off

SCF Procedure:
 Maximum # iterations   MaxIter         ....   125
 SCF integral mode      SCFMode         .... Direct
   Integral package                     .... SHARK and LIBINT hybrid scheme
 Reset frequency        DirectResetFreq ....    20
 Integral Threshold     Thresh          ....  2.500e-11 Eh
 Primitive CutOff       TCut            ....  2.500e-12 Eh

Convergence Tolerance:
 Convergence Check Mode ConvCheckMode   .... Total+1el-Energy
 Convergence forced     ConvForced      .... 0
 Energy Change          TolE            ....  1.000e-08 Eh
 1-El. energy change                    ....  1.000e-05 Eh
 Orbital Gradient       TolG            ....  1.000e-05
 Orbital Rotation angle TolX            ....  1.000e-05
 DIIS Error             TolErr          ....  5.000e-07


Diagonalization of the overlap matrix:
Smallest eigenvalue                        ... 6.199e-07
Time for diagonalization                   ...    0.267 sec
Threshold for overlap eigenvalues          ... 1.000e-08
Number of eigenvalues below threshold      ... 0
Time for construction of square roots      ...    0.124 sec
Total time needed                          ...    0.395 sec

Time for model grid setup =    0.747 sec

------------------------------
INITIAL GUESS: MODEL POTENTIAL
------------------------------
Loading Hartree-Fock densities                     ... done
Calculating cut-offs                               ... done
Initializing the effective Hamiltonian             ... done
Setting up the integral package (SHARK)            ... done
Starting the Coulomb interaction                   ... done (   3.3 sec)
Reading the grid                                   ... done
Mapping shells                                     ... done
Starting the XC term evaluation                    ... done (   2.1 sec)
  promolecular density results
     # of electrons  =    153.982007018
     EX              =   -125.796642991
     EC              =     -5.219734760
     EX+EC           =   -131.016377752
Transforming the Hamiltonian                       ... done (   0.1 sec)
Diagonalizing the Hamiltonian                      ... done (   0.1 sec)
Back transforming the eigenvectors                 ... done (   0.0 sec)
Now organizing SCF variables                       ... done
                      ------------------
                      INITIAL GUESS DONE (   6.5 sec)
                      ------------------
-------------------
DFT GRID GENERATION
-------------------

General Integration Accuracy     IntAcc      ... 4.959
Radial Grid Type                 RadialGrid  ... OptM3 with GC (2021)
Angular Grid (max. ang.)         AngularGrid ... 6 (Lebedev-590)
Angular grid pruning method      GridPruning ... 4 (adaptive)
Weight generation scheme         WeightScheme... Becke
Basis function cutoff            BFCut       ... 1.0000e-11
Integration weight cutoff        WCut        ... 1.0000e-14
Angular grids for H and He will be reduced by one unit
Partially contracted basis set               ... off
Rotationally invariant grid construction     ... off

Total number of grid points                  ...   422733
Total number of batches                      ...     6625
Average number of points per batch           ...       63
Average number of grid points per atom       ...    12433
Time for grid setup =    8.995 sec

--------------------
COSX GRID GENERATION
--------------------

GRIDX 1
-------
General Integration Accuracy     IntAcc      ... 4.020
Radial Grid Type                 RadialGrid  ... OptM3 with GC (2021)
Angular Grid (max. ang.)         AngularGrid ... 2 (Lebedev-110)
Angular grid pruning method      GridPruning ... 4 (adaptive)
Weight generation scheme         WeightScheme... Becke
Basis function cutoff            BFCut       ... 1.0000e-11
Integration weight cutoff        WCut        ... 1.0000e-14
Angular grids for H and He will be reduced by one unit
Partially contracted basis set               ... on
Rotationally invariant grid construction     ... off

Total number of grid points                  ...    49047
Total number of batches                      ...      785
Average number of points per batch           ...       62
Average number of grid points per atom       ...     1443
UseSFitting                                  ... on

GRIDX 2
-------
General Integration Accuracy     IntAcc      ... 4.338
Radial Grid Type                 RadialGrid  ... OptM3 with GC (2021)
Angular Grid (max. ang.)         AngularGrid ... 3 (Lebedev-194)
Angular grid pruning method      GridPruning ... 4 (adaptive)
Weight generation scheme         WeightScheme... Becke
Basis function cutoff            BFCut       ... 1.0000e-11
Integration weight cutoff        WCut        ... 1.0000e-14
Angular grids for H and He will be reduced by one unit
Partially contracted basis set               ... on
Rotationally invariant grid construction     ... off

Total number of grid points                  ...   107952
Total number of batches                      ...     1706
Average number of points per batch           ...       63
Average number of grid points per atom       ...     3175
UseSFitting                                  ... on

GRIDX 3
-------
General Integration Accuracy     IntAcc      ... 4.871
Radial Grid Type                 RadialGrid  ... OptM3 with GC (2021)
Angular Grid (max. ang.)         AngularGrid ... 4 (Lebedev-302)
Angular grid pruning method      GridPruning ... 4 (adaptive)
Weight generation scheme         WeightScheme... Becke
Basis function cutoff            BFCut       ... 1.0000e-11
Integration weight cutoff        WCut        ... 1.0000e-14
Angular grids for H and He will be reduced by one unit
Partially contracted basis set               ... on
Rotationally invariant grid construction     ... off

Total number of grid points                  ...   196704
Total number of batches                      ...     3092
Average number of points per batch           ...       63
Average number of grid points per atom       ...     5785
UseSFitting                                  ... on

Time for X-Grid setup             =    9.760 sec

--------------
SCF ITERATIONS
--------------
ITER       Energy         Delta-E        Max-DP      RMS-DP      [F,P]     Damp
               ***  Starting incremental Fock matrix formation  ***
  0   -920.0784948647   0.000000000000 0.14277485  0.00168230  0.1434285 0.7000
  1   -920.2408931479  -0.162398283170 0.12618643  0.00142011  0.0852834 0.7000
                               ***Turning on DIIS***
  2   -920.3288476326  -0.087954484763 0.31370872  0.00343260  0.0422236 0.0000
  3   -920.4717730061  -0.142925373525 0.03050884  0.00046640  0.0368384 0.0000
  4   -920.4917512700  -0.019978263893 0.00590581  0.00014718  0.0078510 0.0000
                      *** Initiating the SOSCF procedure ***
                           *** Shutting down DIIS ***
                      *** Re-Reading the Fockian *** 
                      *** Removing any level shift *** 
ITER      Energy       Delta-E        Grad      Rot      Max-DP    RMS-DP
  5   -920.49227319  -0.0005219206  0.001077  0.001077  0.003123  0.000056
               *** Restarting incremental Fock matrix formation ***
  6   -920.49235337  -0.0000801749  0.000742  0.003153  0.007155  0.000108
  7   -920.49234692   0.0000064494  0.002150  0.002895  0.003123  0.000049
  8   -920.49238608  -0.0000391661  0.000100  0.000455  0.002745  0.000041
  9   -920.49238604   0.0000000412  0.000132  0.000226  0.000410  0.000006
 10   -920.49238696  -0.0000009222  0.000023  0.000081  0.000316  0.000006
 11   -920.49238695   0.0000000093  0.000018  0.000042  0.000151  0.000002
 12   -920.49238700  -0.0000000457  0.000005  0.000022  0.000265  0.000005
 13   -920.49238701  -0.0000000055  0.000004  0.000010  0.000163  0.000003
                  ***Gradient check signals convergence***
              ***Rediagonalizing the Fockian in SOSCF/NRSCF***

               *****************************************************
               *                     SUCCESS                       *
               *           SCF CONVERGED AFTER  14 CYCLES          *
               *****************************************************

Old exchange energy                            =    -69.181322674 Eh
New exchange energy                            =    -69.181361466 Eh
Exchange energy change after final integration =     -0.000038792 Eh
Total energy after final integration           =   -920.492425787 Eh
Final COS-X integration done in                =   181.745 sec

----------------
TOTAL SCF ENERGY
----------------

Total Energy       :         -920.49242579 Eh          -25047.87231 eV

Components:
Nuclear Repulsion  :         1801.06007334 Eh           49009.33618 eV
Electronic Energy  :        -2721.55249913 Eh          -74057.20850 eV
One Electron Energy:        -4820.49143447 Eh         -131172.24060 eV
Two Electron Energy:         2098.93893534 Eh           57115.03210 eV
Max COSX asymmetry :            0.00000132 Eh               0.00004 eV

Virial components:
Potential Energy   :        -1836.15920879 Eh          -49964.43221 eV
Kinetic Energy     :          915.66678300 Eh           24916.55990 eV
Virial Ratio       :            2.00527009


DFT components:
N(Alpha)           :       77.000016838077 electrons
N(Beta)            :       77.000016838077 electrons
N(Total)           :      154.000033676153 electrons
E(XC)              :      -64.619942718164 Eh       
DFET-embed. en.    :        0.000000000000 Eh       

---------------
SCF CONVERGENCE
---------------

  Last Energy change         ...    9.5579e-09  Tolerance :   1.0000e-08
  Last MAX-Density change    ...    1.2212e-15  Tolerance :   1.0000e-07
  Last RMS-Density change    ...    1.1663e-17  Tolerance :   5.0000e-09
  Last Orbital Gradient      ...    8.5882e-07  Tolerance :   1.0000e-05
  Last Orbital Rotation      ...    3.8324e-06  Tolerance :   1.0000e-05

             **** THE GBW FILE WAS UPDATED (eight_seven.gbw) ****
             **** DENSITY eight_seven.scfp WAS UPDATED ****
             **** ENERGY FILE WAS UPDATED (eight_seven.en.tmp) ****
             **** THE GBW FILE WAS UPDATED (eight_seven.gbw) ****
             **** DENSITY eight_seven.scfp WAS UPDATED ****
----------------
ORBITAL ENERGIES
----------------

  NO   OCC          E(Eh)            E(eV) 
   0   2.0000     -10.586380      -288.0701 
   1   2.0000     -10.586024      -288.0604 
   2   2.0000     -10.582888      -287.9750 
   3   2.0000     -10.574329      -287.7421 
   4   2.0000     -10.570285      -287.6321 
   5   2.0000     -10.567442      -287.5547 
   6   2.0000     -10.565281      -287.4959 
   7   2.0000     -10.564071      -287.4630 
   8   2.0000     -10.562584      -287.4225 
   9   2.0000     -10.562248      -287.4134 
  10   2.0000     -10.561899      -287.4039 
  11   2.0000     -10.561034      -287.3803 
  12   2.0000     -10.560650      -287.3699 
  13   2.0000     -10.560525      -287.3665 
  14   2.0000     -10.554755      -287.2095 
  15   2.0000     -10.553805      -287.1836 
  16   2.0000     -10.553464      -287.1743 
  17   2.0000     -10.552891      -287.1588 
  18   2.0000     -10.552524      -287.1488 
  19   2.0000     -10.552515      -287.1485 
  20   2.0000     -10.551940      -287.1329 
  21   2.0000     -10.551568      -287.1228 
  22   2.0000     -10.551400      -287.1182 
  23   2.0000     -10.549695      -287.0718 
  24   2.0000      -1.028183       -27.9783 
  25   2.0000      -0.988477       -26.8978 
  26   2.0000      -0.987361       -26.8675 
  27   2.0000      -0.936919       -25.4949 
  28   2.0000      -0.934416       -25.4268 
  29   2.0000      -0.916012       -24.9260 
  30   2.0000      -0.881926       -23.9984 
  31   2.0000      -0.867821       -23.6146 
  32   2.0000      -0.850891       -23.1539 
  33   2.0000      -0.844362       -22.9763 
  34   2.0000      -0.814466       -22.1627 
  35   2.0000      -0.809327       -22.0229 
  36   2.0000      -0.730513       -19.8783 
  37   2.0000      -0.729353       -19.8467 
  38   2.0000      -0.724731       -19.7209 
  39   2.0000      -0.718945       -19.5635 
  40   2.0000      -0.712162       -19.3789 
  41   2.0000      -0.649146       -17.6642 
  42   2.0000      -0.636713       -17.3258 
  43   2.0000      -0.623956       -16.9787 
  44   2.0000      -0.613965       -16.7068 
  45   2.0000      -0.609221       -16.5778 
  46   2.0000      -0.598016       -16.2729 
  47   2.0000      -0.555818       -15.1246 
  48   2.0000      -0.545448       -14.8424 
  49   2.0000      -0.536321       -14.5940 
  50   2.0000      -0.534077       -14.5330 
  51   2.0000      -0.527625       -14.3574 
  52   2.0000      -0.517167       -14.0728 
  53   2.0000      -0.513350       -13.9690 
  54   2.0000      -0.499884       -13.6025 
  55   2.0000      -0.494476       -13.4554 
  56   2.0000      -0.486812       -13.2468 
  57   2.0000      -0.480083       -13.0637 
  58   2.0000      -0.470765       -12.8102 
  59   2.0000      -0.470222       -12.7954 
  60   2.0000      -0.468554       -12.7500 
  61   2.0000      -0.445261       -12.1162 
  62   2.0000      -0.440354       -11.9826 
  63   2.0000      -0.433631       -11.7997 
  64   2.0000      -0.426488       -11.6053 
  65   2.0000      -0.408017       -11.1027 
  66   2.0000      -0.406375       -11.0580 
  67   2.0000      -0.390173       -10.6171 
  68   2.0000      -0.388110       -10.5610 
  69   2.0000      -0.385881       -10.5003 
  70   2.0000      -0.337557        -9.1854 
  71   2.0000      -0.332616        -9.0509 
  72   2.0000      -0.317477        -8.6390 
  73   2.0000      -0.315567        -8.5870 
  74   2.0000      -0.314261        -8.5515 
  75   2.0000      -0.258858        -7.0439 
  76   2.0000      -0.256288        -6.9739 
  77   0.0000      -0.082121        -2.2346 
  78   0.0000      -0.042560        -1.1581 
  79   0.0000      -0.040706        -1.1077 
  80   0.0000      -0.000236        -0.0064 
  81   0.0000       0.002042         0.0556 
  82   0.0000       0.018370         0.4999 
  83   0.0000       0.051051         1.3892 
  84   0.0000       0.077775         2.1164 
  85   0.0000       0.083689         2.2773 
  86   0.0000       0.084309         2.2942 
  87   0.0000       0.090630         2.4662 
  88   0.0000       0.098488         2.6800 
  89   0.0000       0.110369         3.0033 
  90   0.0000       0.114296         3.1102 
  91   0.0000       0.114912         3.1269 
  92   0.0000       0.119691         3.2570 
  93   0.0000       0.122105         3.3226 
  94   0.0000       0.126307         3.4370 
  95   0.0000       0.135647         3.6911 
  96   0.0000       0.138275         3.7627 
  97   0.0000       0.141820         3.8591 
  98   0.0000       0.156800         4.2667 
  99   0.0000       0.174058         4.7364 
 100   0.0000       0.177079         4.8186 
 101   0.0000       0.179166         4.8753 
 102   0.0000       0.182503         4.9662 
 103   0.0000       0.190930         5.1955 
 104   0.0000       0.195288         5.3141 
 105   0.0000       0.201354         5.4791 
 106   0.0000       0.209890         5.7114 
 107   0.0000       0.211461         5.7541 
 108   0.0000       0.212417         5.7802 
 109   0.0000       0.227496         6.1905 
 110   0.0000       0.232985         6.3398 
 111   0.0000       0.234098         6.3701 
 112   0.0000       0.235172         6.3994 
 113   0.0000       0.244835         6.6623 
 114   0.0000       0.250098         6.8055 
 115   0.0000       0.259970         7.0741 
 116   0.0000       0.263270         7.1639 
 117   0.0000       0.269484         7.3330 
 118   0.0000       0.269523         7.3341 
 119   0.0000       0.270765         7.3679 
 120   0.0000       0.275854         7.5064 
 121   0.0000       0.283340         7.7101 
 122   0.0000       0.283976         7.7274 
 123   0.0000       0.285594         7.7714 
 124   0.0000       0.290218         7.8972 
 125   0.0000       0.298011         8.1093 
 126   0.0000       0.302691         8.2366 
 127   0.0000       0.303327         8.2540 
 128   0.0000       0.303420         8.2565 
 129   0.0000       0.317269         8.6333 
 130   0.0000       0.318339         8.6625 
 131   0.0000       0.320300         8.7158 
 132   0.0000       0.320788         8.7291 
 133   0.0000       0.321811         8.7569 
 134   0.0000       0.323490         8.8026 
 135   0.0000       0.324739         8.8366 
 136   0.0000       0.337652         9.1880 
 137   0.0000       0.348363         9.4794 
 138   0.0000       0.354065         9.6346 
 139   0.0000       0.356688         9.7060 
 140   0.0000       0.357952         9.7404 
 141   0.0000       0.359283         9.7766 
 142   0.0000       0.361372         9.8334 
 143   0.0000       0.372132        10.1262 
 144   0.0000       0.375646        10.2218 
 145   0.0000       0.381661        10.3855 
 146   0.0000       0.382117        10.3979 
 147   0.0000       0.383145        10.4259 
 148   0.0000       0.384415        10.4605 
 149   0.0000       0.387617        10.5476 
 150   0.0000       0.392190        10.6720 
 151   0.0000       0.394838        10.7441 
 152   0.0000       0.404923        11.0185 
 153   0.0000       0.411397        11.1947 
 154   0.0000       0.412600        11.2274 
 155   0.0000       0.414371        11.2756 
 156   0.0000       0.420622        11.4457 
 157   0.0000       0.426381        11.6024 
 158   0.0000       0.428349        11.6560 
 159   0.0000       0.432766        11.7762 
 160   0.0000       0.438493        11.9320 
 161   0.0000       0.444860        12.1053 
 162   0.0000       0.456443        12.4204 
 163   0.0000       0.459942        12.5157 
 164   0.0000       0.461438        12.5564 
 165   0.0000       0.462310        12.5801 
 166   0.0000       0.465643        12.6708 
 167   0.0000       0.467540        12.7224 
 168   0.0000       0.476792        12.9742 
 169   0.0000       0.477186        12.9849 
 170   0.0000       0.486498        13.2383 
 171   0.0000       0.494586        13.4584 
 172   0.0000       0.508892        13.8477 
 173   0.0000       0.509380        13.8609 
 174   0.0000       0.513411        13.9706 
 175   0.0000       0.514512        14.0006 
 176   0.0000       0.515488        14.0271 
 177   0.0000       0.522079        14.2065 
 178   0.0000       0.531177        14.4541 
 179   0.0000       0.536693        14.6042 
 180   0.0000       0.544550        14.8180 
 181   0.0000       0.545222        14.8362 
 182   0.0000       0.547159        14.8889 
 183   0.0000       0.550003        14.9663 
 184   0.0000       0.552945        15.0464 
 185   0.0000       0.555653        15.1201 
 186   0.0000       0.569653        15.5010 
 187   0.0000       0.577065        15.7027 
 188   0.0000       0.581370        15.8199 
 189   0.0000       0.582457        15.8494 
 190   0.0000       0.583596        15.8804 
 191   0.0000       0.603381        16.4188 
 192   0.0000       0.616453        16.7745 
 193   0.0000       0.632626        17.2146 
 194   0.0000       0.634703        17.2711 
 195   0.0000       0.635666        17.2974 
 196   0.0000       0.636330        17.3154 
 197   0.0000       0.638032        17.3617 
 198   0.0000       0.641510        17.4564 
 199   0.0000       0.648517        17.6470 
 200   0.0000       0.651598        17.7309 
 201   0.0000       0.652852        17.7650 
 202   0.0000       0.657571        17.8934 
 203   0.0000       0.664168        18.0729 
 204   0.0000       0.669311        18.2129 
 205   0.0000       0.675738        18.3878 
 206   0.0000       0.676899        18.4194 
 207   0.0000       0.678131        18.4529 
 208   0.0000       0.681600        18.5473 
 209   0.0000       0.692779        18.8515 
 210   0.0000       0.699316        19.0293 
 211   0.0000       0.699641        19.0382 
 212   0.0000       0.714056        19.4305 
 213   0.0000       0.722335        19.6557 
 214   0.0000       0.725940        19.7538 
 215   0.0000       0.731137        19.8953 
 216   0.0000       0.740003        20.1365 
 217   0.0000       0.745566        20.2879 
 218   0.0000       0.756427        20.5834 
 219   0.0000       0.765033        20.8176 
 220   0.0000       0.766316        20.8525 
 221   0.0000       0.768036        20.8993 
 222   0.0000       0.768430        20.9100 
 223   0.0000       0.778383        21.1809 
 224   0.0000       0.781721        21.2717 
 225   0.0000       0.782590        21.2954 
 226   0.0000       0.788745        21.4628 
 227   0.0000       0.790799        21.5187 
 228   0.0000       0.791925        21.5494 
 229   0.0000       0.793982        21.6053 
 230   0.0000       0.799367        21.7519 
 231   0.0000       0.802931        21.8489 
 232   0.0000       0.806474        21.9453 
 233   0.0000       0.821810        22.3626 
 234   0.0000       0.826284        22.4843 
 235   0.0000       0.832400        22.6508 
 236   0.0000       0.837162        22.7803 
 237   0.0000       0.843336        22.9483 
 238   0.0000       0.848799        23.0970 
 239   0.0000       0.854106        23.2414 
 240   0.0000       0.862835        23.4789 
 241   0.0000       0.865264        23.5450 
 242   0.0000       0.867839        23.6151 
 243   0.0000       0.873080        23.7577 
 244   0.0000       0.878771        23.9126 
 245   0.0000       0.889167        24.1955 
 246   0.0000       0.891194        24.2506 
 247   0.0000       0.896033        24.3823 
 248   0.0000       0.899716        24.4825 
 249   0.0000       0.903233        24.5782 
 250   0.0000       0.907081        24.6829 
 251   0.0000       0.913075        24.8460 
 252   0.0000       0.920636        25.0518 
 253   0.0000       0.924250        25.1501 
 254   0.0000       0.929982        25.3061 
 255   0.0000       0.938088        25.5267 
 256   0.0000       0.951592        25.8941 
 257   0.0000       0.953140        25.9363 
 258   0.0000       0.960418        26.1343 
 259   0.0000       0.972828        26.4720 
 260   0.0000       0.994561        27.0634 
 261   0.0000       0.997690        27.1485 
 262   0.0000       1.000192        27.2166 
 263   0.0000       1.017935        27.6994 
 264   0.0000       1.020929        27.7809 
 265   0.0000       1.025516        27.9057 
 266   0.0000       1.026696        27.9378 
 267   0.0000       1.052537        28.6410 
 268   0.0000       1.053378        28.6639 
 269   0.0000       1.054812        28.7029 
 270   0.0000       1.074685        29.2437 
 271   0.0000       1.075719        29.2718 
 272   0.0000       1.078366        29.3438 
 273   0.0000       1.086830        29.5741 
 274   0.0000       1.089777        29.6543 
 275   0.0000       1.101773        29.9808 
 276   0.0000       1.107991        30.1500 
 277   0.0000       1.111901        30.2564 
 278   0.0000       1.119644        30.4671 
 279   0.0000       1.133226        30.8366 
 280   0.0000       1.136779        30.9333 
 281   0.0000       1.140294        31.0290 
 282   0.0000       1.188305        32.3354 
 283   0.0000       1.199144        32.6304 
 284   0.0000       1.203871        32.7590 
 285   0.0000       1.208587        32.8873 
 286   0.0000       1.213296        33.0155 
 287   0.0000       1.222442        33.2643 
 288   0.0000       1.229044        33.4440 
 289   0.0000       1.232437        33.5363 
 290   0.0000       1.237543        33.6753 
 291   0.0000       1.248180        33.9647 
 292   0.0000       1.248280        33.9674 
 293   0.0000       1.253737        34.1159 
 294   0.0000       1.258817        34.2541 
 295   0.0000       1.272387        34.6234 
 296   0.0000       1.278640        34.7936 
 297   0.0000       1.280715        34.8500 
 298   0.0000       1.283621        34.9291 
 299   0.0000       1.288380        35.0586 
 300   0.0000       1.295128        35.2422 
 301   0.0000       1.299504        35.3613 
 302   0.0000       1.301829        35.4246 
 303   0.0000       1.309817        35.6419 
 304   0.0000       1.319987        35.9187 
 305   0.0000       1.327600        36.1258 
 306   0.0000       1.335826        36.3497 
 307   0.0000       1.345400        36.6102 
 308   0.0000       1.356087        36.9010 
 309   0.0000       1.364760        37.1370 
 310   0.0000       1.370378        37.2899 
 311   0.0000       1.371942        37.3324 
 312   0.0000       1.373821        37.3836 
 313   0.0000       1.376952        37.4688 
 314   0.0000       1.384162        37.6650 
 315   0.0000       1.396812        38.0092 
 316   0.0000       1.398069        38.0434 
 317   0.0000       1.407457        38.2988 
 318   0.0000       1.411074        38.3973 
 319   0.0000       1.418063        38.5874 
 320   0.0000       1.423160        38.7262 
 321   0.0000       1.429505        38.8988 
 322   0.0000       1.434005        39.0212 
 323   0.0000       1.458848        39.6973 
 324   0.0000       1.463532        39.8247 
 325   0.0000       1.475545        40.1516 
 326   0.0000       1.491635        40.5894 
 327   0.0000       1.493536        40.6412 
 328   0.0000       1.495884        40.7051 
 329   0.0000       1.500782        40.8384 
 330   0.0000       1.513236        41.1772 
 331   0.0000       1.516872        41.2762 
 332   0.0000       1.522700        41.4348 
 333   0.0000       1.528325        41.5878 
 334   0.0000       1.541137        41.9365 
 335   0.0000       1.547295        42.1040 
 336   0.0000       1.548907        42.1479 
 337   0.0000       1.549224        42.1565 
 338   0.0000       1.562818        42.5264 
 339   0.0000       1.569720        42.7142 
 340   0.0000       1.572458        42.7888 
 341   0.0000       1.573493        42.8169 
 342   0.0000       1.579413        42.9780 
 343   0.0000       1.593392        43.3584 
 344   0.0000       1.593636        43.3651 
 345   0.0000       1.598780        43.5050 
 346   0.0000       1.615929        43.9717 
 347   0.0000       1.623780        44.1853 
 348   0.0000       1.633596        44.4524 
 349   0.0000       1.637574        44.5607 
 350   0.0000       1.649145        44.8755 
 351   0.0000       1.651142        44.9299 
 352   0.0000       1.652545        44.9680 
 353   0.0000       1.653849        45.0035 
 354   0.0000       1.657164        45.0937 
 355   0.0000       1.659953        45.1696 
 356   0.0000       1.663595        45.2687 
 357   0.0000       1.664027        45.2805 
 358   0.0000       1.711506        46.5725 
 359   0.0000       1.715480        46.6806 
 360   0.0000       1.716398        46.7056 
 361   0.0000       1.726120        46.9701 
 362   0.0000       1.726606        46.9833 
 363   0.0000       1.731032        47.1038 
 364   0.0000       1.738204        47.2989 
 365   0.0000       1.738668        47.3116 
 366   0.0000       1.749330        47.6017 
 367   0.0000       1.749709        47.6120 
 368   0.0000       1.750676        47.6383 
 369   0.0000       1.757271        47.8178 
 370   0.0000       1.760639        47.9094 
 371   0.0000       1.773831        48.2684 
 372   0.0000       1.776883        48.3514 
 373   0.0000       1.779990        48.4360 
 374   0.0000       1.784079        48.5473 
 375   0.0000       1.787129        48.6303 
 376   0.0000       1.813357        49.3439 
 377   0.0000       1.822722        49.5988 
 378   0.0000       1.832030        49.8521 
 379   0.0000       1.854023        50.4505 
 380   0.0000       1.864100        50.7247 
 381   0.0000       1.884749        51.2866 
 382   0.0000       1.907099        51.8948 
 383   0.0000       1.907381        51.9025 
 384   0.0000       1.911704        52.0201 
 385   0.0000       1.923192        52.3327 
 386   0.0000       1.927462        52.4489 
 387   0.0000       1.948039        53.0088 
 388   0.0000       1.956726        53.2452 
 389   0.0000       1.958208        53.2856 
 390   0.0000       1.965906        53.4950 
 391   0.0000       1.977680        53.8154 
 392   0.0000       1.983579        53.9759 
 393   0.0000       1.989585        54.1394 
 394   0.0000       2.000337        54.4319 
 395   0.0000       2.003290        54.5123 
 396   0.0000       2.017940        54.9109 
 397   0.0000       2.031520        55.2805 
 398   0.0000       2.032177        55.2983 
 399   0.0000       2.045965        55.6735 
 400   0.0000       2.050766        55.8042 
 401   0.0000       2.077063        56.5198 
 402   0.0000       2.086893        56.7872 
[...]

For completeness - the Gibbs free energy minus the electronic energy
G-E(el)                           ...     -3.57655600 Eh  -2244.32 kcal/mol


The first frequency considered to be a vibration is 6
The total number of vibrations considered is 96


--------------------------
THERMOCHEMISTRY AT 8000.00K
--------------------------

Temperature         ... 8000.00 K
Pressure            ... 1.00 atm
Total Mass          ... 298.34 AMU

Throughout the following assumptions are being made:
  (1) The electronic state is orbitally nondegenerate
  (2) There are no thermally accessible electronically excited states
  (3) Hindered rotations indicated by low frequency modes are not
      treated as such but are treated as vibrations and this may
      cause some error
  (4) All equations used are the standard statistical mechanics
      equations for an ideal gas
  (5) All vibrations are strictly harmonic

freq.      90.22  E(vib)   ...      15.77 
freq.      90.70  E(vib)   ...      15.77 
freq.     132.09  E(vib)   ...      15.71 
freq.     171.11  E(vib)   ...      15.65 
freq.     229.26  E(vib)   ...      15.57 
freq.     301.84  E(vib)   ...      15.47 
freq.     304.42  E(vib)   ...      15.47 
freq.     310.12  E(vib)   ...      15.46 
freq.     329.97  E(vib)   ...      15.43 
freq.     360.91  E(vib)   ...      15.39 
freq.     368.15  E(vib)   ...      15.38 
freq.     390.14  E(vib)   ...      15.35 
freq.     395.12  E(vib)   ...      15.34 
freq.     449.68  E(vib)   ...      15.26 
freq.     456.83  E(vib)   ...      15.25 
freq.     463.39  E(vib)   ...      15.24 
freq.     477.78  E(vib)   ...      15.22 
freq.     496.16  E(vib)   ...      15.20 
freq.     502.03  E(vib)   ...      15.19 
freq.     510.52  E(vib)   ...      15.18 
freq.     512.81  E(vib)   ...      15.18 
freq.     552.84  E(vib)   ...      15.12 
freq.     565.80  E(vib)   ...      15.10 
freq.     583.81  E(vib)   ...      15.08 
freq.     589.89  E(vib)   ...      15.07 
freq.     647.03  E(vib)   ...      14.99 
freq.     656.20  E(vib)   ...      14.98 
freq.     685.68  E(vib)   ...      14.94 
freq.     685.91  E(vib)   ...      14.94 
freq.     689.25  E(vib)   ...      14.93 
freq.     699.95  E(vib)   ...      14.92 
freq.     748.76  E(vib)   ...      14.85 
freq.     778.22  E(vib)   ...      14.81 
freq.     797.53  E(vib)   ...      14.79 
freq.     802.51  E(vib)   ...      14.78 
freq.     838.29  E(vib)   ...      14.73 
freq.     838.35  E(vib)   ...      14.73 
freq.     838.83  E(vib)   ...      14.73 
freq.     846.35  E(vib)   ...      14.72 
freq.     868.31  E(vib)   ...      14.69 
freq.     878.18  E(vib)   ...      14.68 
freq.     891.23  E(vib)   ...      14.66 
freq.     917.31  E(vib)   ...      14.62 
freq.     955.33  E(vib)   ...      14.57 
freq.     984.46  E(vib)   ...      14.53 
freq.     990.29  E(vib)   ...      14.52 
freq.     995.53  E(vib)   ...      14.52 
freq.    1000.87  E(vib)   ...      14.51 
freq.    1004.04  E(vib)   ...      14.51 
freq.    1005.34  E(vib)   ...      14.50 
freq.    1019.23  E(vib)   ...      14.49 
freq.    1052.43  E(vib)   ...      14.44 
freq.    1145.47  E(vib)   ...      14.32 
freq.    1146.60  E(vib)   ...      14.32 
freq.    1169.57  E(vib)   ...      14.28 
freq.    1177.17  E(vib)   ...      14.27 
freq.    1183.60  E(vib)   ...      14.27 
freq.    1214.21  E(vib)   ...      14.23 
freq.    1228.81  E(vib)   ...      14.21 
freq.    1247.34  E(vib)   ...      14.18 
freq.    1251.85  E(vib)   ...      14.18 
freq.    1254.11  E(vib)   ...      14.17 
freq.    1259.12  E(vib)   ...      14.17 
freq.    1300.42  E(vib)   ...      14.11 
freq.    1316.57  E(vib)   ...      14.09 
freq.    1357.34  E(vib)   ...      14.04 
freq.    1372.32  E(vib)   ...      14.02 
freq.    1393.02  E(vib)   ...      13.99 
freq.    1405.67  E(vib)   ...      13.97 
freq.    1429.71  E(vib)   ...      13.94 
freq.    1441.30  E(vib)   ...      13.93 
freq.    1451.30  E(vib)   ...      13.91 
freq.    1470.44  E(vib)   ...      13.89 
freq.    1475.41  E(vib)   ...      13.88 
freq.    1478.60  E(vib)   ...      13.88 
freq.    1515.15  E(vib)   ...      13.83 
freq.    1554.13  E(vib)   ...      13.78 
freq.    1555.33  E(vib)   ...      13.78 
freq.    1585.60  E(vib)   ...      13.74 
freq.    1595.25  E(vib)   ...      13.73 
freq.    1610.47  E(vib)   ...      13.71 
freq.    1674.67  E(vib)   ...      13.62 
freq.    1679.51  E(vib)   ...      13.62 
freq.    1690.47  E(vib)   ...      13.60 
freq.    1693.61  E(vib)   ...      13.60 
freq.    2129.49  E(vib)   ...      13.05 
freq.    3200.91  E(vib)   ...      11.76 
freq.    3201.97  E(vib)   ...      11.76 
freq.    3202.48  E(vib)   ...      11.76 
freq.    3209.15  E(vib)   ...      11.75 
freq.    3209.50  E(vib)   ...      11.75 
freq.    3217.43  E(vib)   ...      11.74 
freq.    3218.62  E(vib)   ...      11.74 
freq.    3219.28  E(vib)   ...      11.74 
freq.    3235.39  E(vib)   ...      11.72 
freq.    3236.54  E(vib)   ...      11.72 

------------
INNER ENERGY
------------

The inner energy is: U= E(el) + E(ZPE) + E(vib) + E(rot) + E(trans)
    E(el)   - is the total energy from the electronic structure calculation
              = E(kin-el) + E(nuc-el) + E(el-el) + E(nuc-nuc)
    E(ZPE)  - the the zero temperature vibrational energy from the frequency calculation
    E(vib)  - the the finite temperature correction to E(ZPE) due to population
              of excited vibrational states
    E(rot)  - is the rotational thermal energy
    E(trans)- is the translational thermal energy

Summary of contributions to the inner energy U:
Electronic energy                ...   -920.51942915 Eh
Zero point energy                ...      0.25824380 Eh     162.05 kcal/mol
Thermal vibrational correction   ...      2.18743088 Eh    1372.63 kcal/mol
Thermal rotational correction    ...      0.03800158 Eh      23.85 kcal/mol
Thermal translational correction ...      0.03800158 Eh      23.85 kcal/mol
-----------------------------------------------------------------------
Total thermal energy                   -917.99775130 Eh


Summary of corrections to the electronic energy:
(perhaps to be used in another calculation)
Total thermal correction                  2.26343405 Eh    1420.32 kcal/mol
Non-thermal (ZPE) correction              0.25824380 Eh     162.05 kcal/mol
-----------------------------------------------------------------------
Total correction                          2.52167785 Eh    1582.37 kcal/mol


--------
ENTHALPY
--------

The enthalpy is H = U + kB*T
                kB is Boltzmann's constant
Total free energy                 ...   -917.99775130 Eh 
Thermal Enthalpy correction       ...      0.02533514 Eh      15.90 kcal/mol
-----------------------------------------------------------------------
Total Enthalpy                    ...   -917.97241616 Eh


Note: Rotational entropy computed according to Herzberg 
Infrared and Raman Spectra, Chapter V,1, Van Nostrand Reinhold, 1945 
Point Group:  Cs, Symmetry Number:   1  
Rotational constants in cm-1:     0.011736     0.011122     0.005711 

Vibrational entropy computed according to the QRRHO of S. Grimme
Chem.Eur.J. 2012 18 9955


-------
ENTROPY
-------

The entropy contributions are T*S = T*(S(el)+S(vib)+S(rot)+S(trans))
     S(el)   - electronic entropy
     S(vib)  - vibrational entropy
     S(rot)  - rotational entropy
     S(trans)- translational entropy
The entropies will be listed as multiplied by the temperature to get
units of energy

Electronic entropy                ...      0.00000000 Eh      0.00 kcal/mol
Vibrational entropy               ...      6.72855388 Eh   4222.22 kcal/mol
Rotational entropy                ...      0.55893044 Eh    350.73 kcal/mol
Translational entropy             ...      0.75624431 Eh    474.55 kcal/mol
-----------------------------------------------------------------------
Final entropy term                ...      8.04372864 Eh   5047.50 kcal/mol

In case the symmetry of your molecule has not been determined correctly
or in case you have a reason to use a different symmetry number we print 
out the resulting rotational entropy values for sn=1,12 :
 --------------------------------------------------------
|  sn= 1 | S(rot)=       0.55893044 Eh    350.73 kcal/mol|
|  sn= 2 | S(rot)=       0.54136998 Eh    339.71 kcal/mol|
|  sn= 3 | S(rot)=       0.53109777 Eh    333.27 kcal/mol|
|  sn= 4 | S(rot)=       0.52380952 Eh    328.69 kcal/mol|
|  sn= 5 | S(rot)=       0.51815632 Eh    325.15 kcal/mol|
|  sn= 6 | S(rot)=       0.51353731 Eh    322.25 kcal/mol|
|  sn= 7 | S(rot)=       0.50963200 Eh    319.80 kcal/mol|
|  sn= 8 | S(rot)=       0.50624907 Eh    317.68 kcal/mol|
|  sn= 9 | S(rot)=       0.50326510 Eh    315.80 kcal/mol|
|  sn=10 | S(rot)=       0.50059586 Eh    314.13 kcal/mol|
|  sn=11 | S(rot)=       0.49818124 Eh    312.61 kcal/mol|
|  sn=12 | S(rot)=       0.49597686 Eh    311.23 kcal/mol|
 --------------------------------------------------------


-------------------
GIBBS FREE ENERGY
-------------------

The Gibbs free energy is G = H - T*S

Total enthalpy                    ...   -917.97241616 Eh 
Total entropy correction          ...     -8.04372864 Eh  -5047.50 kcal/mol
-----------------------------------------------------------------------
Final Gibbs free energy         ...   -926.01614480 Eh

For completeness - the Gibbs free energy minus the electronic energy
G-E(el)                           ...     -5.49671564 Eh  -3449.23 kcal/mol


The first frequency considered to be a vibration is 6
The total number of vibrations considered is 96


--------------------------
THERMOCHEMISTRY AT 10000.00K
--------------------------

Temperature         ... 10000.00 K
Pressure            ... 1.00 atm
Total Mass          ... 298.34 AMU

Throughout the following assumptions are being made:
  (1) The electronic state is orbitally nondegenerate
  (2) There are no thermally accessible electronically excited states
  (3) Hindered rotations indicated by low frequency modes are not
      treated as such but are treated as vibrations and this may
      cause some error
  (4) All equations used are the standard statistical mechanics
      equations for an ideal gas
  (5) All vibrations are strictly harmonic

freq.      90.22  E(vib)   ...      19.74 
freq.      90.70  E(vib)   ...      19.74 
freq.     132.09  E(vib)   ...      19.68 
freq.     171.11  E(vib)   ...      19.63 
freq.     229.26  E(vib)   ...      19.55 
freq.     301.84  E(vib)   ...      19.44 
freq.     304.42  E(vib)   ...      19.44 
freq.     310.12  E(vib)   ...      19.43 
freq.     329.97  E(vib)   ...      19.40 
freq.     360.91  E(vib)   ...      19.36 
freq.     368.15  E(vib)   ...      19.35 
freq.     390.14  E(vib)   ...      19.32 
freq.     395.12  E(vib)   ...      19.31 
freq.     449.68  E(vib)   ...      19.24 
freq.     456.83  E(vib)   ...      19.23 
freq.     463.39  E(vib)   ...      19.22 
freq.     477.78  E(vib)   ...      19.20 
freq.     496.16  E(vib)   ...      19.17 
freq.     502.03  E(vib)   ...      19.16 
freq.     510.52  E(vib)   ...      19.15 
freq.     512.81  E(vib)   ...      19.15 
freq.     552.84  E(vib)   ...      19.09 
freq.     565.80  E(vib)   ...      19.07 
freq.     583.81  E(vib)   ...      19.05 
freq.     589.89  E(vib)   ...      19.04 
freq.     647.03  E(vib)   ...      18.96 
freq.     656.20  E(vib)   ...      18.95 
freq.     685.68  E(vib)   ...      18.91 
freq.     685.91  E(vib)   ...      18.91 
freq.     689.25  E(vib)   ...      18.90 
freq.     699.95  E(vib)   ...      18.89 
freq.     748.76  E(vib)   ...      18.82 
freq.     778.22  E(vib)   ...      18.78 
freq.     797.53  E(vib)   ...      18.75 
freq.     802.51  E(vib)   ...      18.75 
freq.     838.29  E(vib)   ...      18.70 
freq.     838.35  E(vib)   ...      18.70 
freq.     838.83  E(vib)   ...      18.70 
freq.     846.35  E(vib)   ...      18.69 
freq.     868.31  E(vib)   ...      18.66 
freq.     878.18  E(vib)   ...      18.64 
freq.     891.23  E(vib)   ...      18.63 
freq.     917.31  E(vib)   ...      18.59 
freq.     955.33  E(vib)   ...      18.54 
freq.     984.46  E(vib)   ...      18.50 
freq.     990.29  E(vib)   ...      18.49 
freq.     995.53  E(vib)   ...      18.48 
freq.    1000.87  E(vib)   ...      18.48 
freq.    1004.04  E(vib)   ...      18.47 
freq.    1005.34  E(vib)   ...      18.47 
freq.    1019.23  E(vib)   ...      18.45 
freq.    1052.43  E(vib)   ...      18.41 
freq.    1145.47  E(vib)   ...      18.28 
freq.    1146.60  E(vib)   ...      18.28 
freq.    1169.57  E(vib)   ...      18.25 
freq.    1177.17  E(vib)   ...      18.24 
freq.    1183.60  E(vib)   ...      18.23 
freq.    1214.21  E(vib)   ...      18.19 
freq.    1228.81  E(vib)   ...      18.17 
freq.    1247.34  E(vib)   ...      18.14 
freq.    1251.85  E(vib)   ...      18.14 
freq.    1254.11  E(vib)   ...      18.13 
freq.    1259.12  E(vib)   ...      18.13 
freq.    1300.42  E(vib)   ...      18.07 
freq.    1316.57  E(vib)   ...      18.05 
freq.    1357.34  E(vib)   ...      18.00 
freq.    1372.32  E(vib)   ...      17.98 
freq.    1393.02  E(vib)   ...      17.95 
freq.    1405.67  E(vib)   ...      17.93 
freq.    1429.71  E(vib)   ...      17.90 
freq.    1441.30  E(vib)   ...      17.88 
freq.    1451.30  E(vib)   ...      17.87 
freq.    1470.44  E(vib)   ...      17.84 
freq.    1475.41  E(vib)   ...      17.84 
freq.    1478.60  E(vib)   ...      17.83 
freq.    1515.15  E(vib)   ...      17.79 
freq.    1554.13  E(vib)   ...      17.73 
freq.    1555.33  E(vib)   ...      17.73 
freq.    1585.60  E(vib)   ...      17.69 
freq.    1595.25  E(vib)   ...      17.68 
freq.    1610.47  E(vib)   ...      17.66 
freq.    1674.67  E(vib)   ...      17.57 
freq.    1679.51  E(vib)   ...      17.57 
freq.    1690.47  E(vib)   ...      17.55 
freq.    1693.61  E(vib)   ...      17.55 
freq.    2129.49  E(vib)   ...      16.98 
freq.    3200.91  E(vib)   ...      15.65 
freq.    3201.97  E(vib)   ...      15.65 
freq.    3202.48  E(vib)   ...      15.64 
freq.    3209.15  E(vib)   ...      15.64 
freq.    3209.50  E(vib)   ...      15.64 
freq.    3217.43  E(vib)   ...      15.63 
freq.    3218.62  E(vib)   ...      15.63 
freq.    3219.28  E(vib)   ...      15.62 
freq.    3235.39  E(vib)   ...      15.60 
freq.    3236.54  E(vib)   ...      15.60 

------------
INNER ENERGY
------------

The inner energy is: U= E(el) + E(ZPE) + E(vib) + E(rot) + E(trans)
    E(el)   - is the total energy from the electronic structure calculation
              = E(kin-el) + E(nuc-el) + E(el-el) + E(nuc-nuc)
    E(ZPE)  - the the zero temperature vibrational energy from the frequency calculation
    E(vib)  - the the finite temperature correction to E(ZPE) due to population
              of excited vibrational states
    E(rot)  - is the rotational thermal energy
    E(trans)- is the translational thermal energy

Summary of contributions to the inner energy U:
Electronic energy                ...   -920.51942915 Eh
Zero point energy                ...      0.25824380 Eh     162.05 kcal/mol
Thermal vibrational correction   ...      2.79278711 Eh    1752.50 kcal/mol
Thermal rotational correction    ...      0.04750198 Eh      29.81 kcal/mol
Thermal translational correction ...      0.04750198 Eh      29.81 kcal/mol
-----------------------------------------------------------------------
Total thermal energy                   -917.37339429 Eh


Summary of corrections to the electronic energy:
(perhaps to be used in another calculation)
Total thermal correction                  2.88779106 Eh    1812.11 kcal/mol
Non-thermal (ZPE) correction              0.25824380 Eh     162.05 kcal/mol
-----------------------------------------------------------------------
Total correction                          3.14603486 Eh    1974.16 kcal/mol


--------
ENTHALPY
--------

The enthalpy is H = U + kB*T
                kB is Boltzmann's constant
Total free energy                 ...   -917.37339429 Eh 
Thermal Enthalpy correction       ...      0.03166893 Eh      19.87 kcal/mol
-----------------------------------------------------------------------
Total Enthalpy                    ...   -917.34172537 Eh


Note: Rotational entropy computed according to Herzberg 
Infrared and Raman Spectra, Chapter V,1, Van Nostrand Reinhold, 1945 
Point Group:  Cs, Symmetry Number:   1  
Rotational constants in cm-1:     0.011736     0.011122     0.005711 

Vibrational entropy computed according to the QRRHO of S. Grimme
Chem.Eur.J. 2012 18 9955


-------
ENTROPY
-------

The entropy contributions are T*S = T*(S(el)+S(vib)+S(rot)+S(trans))
     S(el)   - electronic entropy
     S(vib)  - vibrational entropy
     S(rot)  - rotational entropy
     S(trans)- translational entropy
The entropies will be listed as multiplied by the temperature to get
units of energy

Electronic entropy                ...      0.00000000 Eh      0.00 kcal/mol
Vibrational entropy               ...      9.08014487 Eh   5697.86 kcal/mol
Rotational entropy                ...      0.70926281 Eh    445.07 kcal/mol
Translational entropy             ...      0.96297166 Eh    604.27 kcal/mol
-----------------------------------------------------------------------
Final entropy term                ...     10.75237934 Eh   6747.21 kcal/mol

In case the symmetry of your molecule has not been determined correctly
or in case you have a reason to use a different symmetry number we print 
out the resulting rotational entropy values for sn=1,12 :
 --------------------------------------------------------
|  sn= 1 | S(rot)=       0.70926281 Eh    445.07 kcal/mol|
|  sn= 2 | S(rot)=       0.68731224 Eh    431.29 kcal/mol|
|  sn= 3 | S(rot)=       0.67447198 Eh    423.24 kcal/mol|
|  sn= 4 | S(rot)=       0.66536167 Eh    417.52 kcal/mol|
|  sn= 5 | S(rot)=       0.65829516 Eh    413.09 kcal/mol|
|  sn= 6 | S(rot)=       0.65252140 Eh    409.46 kcal/mol|
|  sn= 7 | S(rot)=       0.64763976 Eh    406.40 kcal/mol|
|  sn= 8 | S(rot)=       0.64341109 Eh    403.75 kcal/mol|
|  sn= 9 | S(rot)=       0.63968114 Eh    401.41 kcal/mol|
|  sn=10 | S(rot)=       0.63634458 Eh    399.31 kcal/mol|
|  sn=11 | S(rot)=       0.63332630 Eh    397.42 kcal/mol|
|  sn=12 | S(rot)=       0.63057083 Eh    395.69 kcal/mol|
 --------------------------------------------------------


-------------------
GIBBS FREE ENERGY
-------------------

The Gibbs free energy is G = H - T*S

Total enthalpy                    ...   -917.34172537 Eh 
Total entropy correction          ...    -10.75237934 Eh  -6747.21 kcal/mol
-----------------------------------------------------------------------
Final Gibbs free energy         ...   -928.09410470 Eh

For completeness - the Gibbs free energy minus the electronic energy
G-E(el)                           ...     -7.57467555 Eh  -4753.17 kcal/mol


Timings for individual modules:

Sum of individual times         ...    43680.827 sec (= 728.014 min)
GTO integral calculation        ...       30.820 sec (=   0.514 min)   0.1 %
SCF iterations                  ...    12283.096 sec (= 204.718 min)  28.1 %
SCF Gradient evaluation         ...     2972.483 sec (=  49.541 min)   6.8 %
Geometry relaxation             ...        2.797 sec (=   0.047 min)   0.0 %
Analytical frequency calculation...    28391.631 sec (= 473.194 min)  65.0 %
                             ****ORCA TERMINATED NORMALLY****
TOTAL RUN TIME: 0 days 12 hours 8 minutes 10 seconds 552 msec
