
                                 *****************
                                 * O   R   C   A *
                                 *****************

                                            #,                                       
                                            ###                                      
                                            ####                                     
                                            #####                                    
                                            ######                                   
                                           ########,                                 
                                     ,,################,,,,,                         
                               ,,#################################,,                 
                          ,,##########################################,,             
                       ,#########################################, ''#####,          
                    ,#############################################,,   '####,        
                  ,##################################################,,,,####,       
                ,###########''''           ''''###############################       
              ,#####''   ,,,,##########,,,,          '''####'''          '####       
            ,##' ,,,,###########################,,,                        '##       
           ' ,,###''''                  '''############,,,                           
         ,,##''                                '''############,,,,        ,,,,,,###''
      ,#''                                            '''#######################'''  
     '                                                          ''''####''''         
             ,#######,   #######,   ,#######,      ##                                
            ,#'     '#,  ##    ##  ,#'     '#,    #''#        ######   ,####,        
            ##       ##  ##   ,#'  ##            #'  '#       #        #'  '#        
            ##       ##  #######   ##           ,######,      #####,   #    #        
            '#,     ,#'  ##    ##  '#,     ,#' ,#      #,         ##   #,  ,#        
             '#######'   ##     ##  '#######'  #'      '#     #####' # '####'        



                  #######################################################
                  #                        -***-                        #
                  #          Department of theory and spectroscopy      #
                  #    Directorship and core code : Frank Neese         #
                  #        Max Planck Institute fuer Kohlenforschung    #
                  #                Kaiser Wilhelm Platz 1               #
                  #                 D-45470 Muelheim/Ruhr               #
                  #                      Germany                        #
                  #                                                     #
                  #                  All rights reserved                #
                  #                        -***-                        #
                  #######################################################



                         Program Version 5.0.4 -  RELEASE  -

 With contributions from (in alphabetic order):
   Daniel Aravena         : Magnetic Suceptibility
   Michael Atanasov       : Ab Initio Ligand Field Theory (pilot matlab implementation)
   Alexander A. Auer      : GIAO ZORA, VPT2 properties, NMR spectrum
   Ute Becker             : Parallelization
   Giovanni Bistoni       : ED, misc. LED, open-shell LED, HFLD
   Martin Brehm           : Molecular dynamics
   Dmytro Bykov           : SCF Hessian
   Vijay G. Chilkuri      : MRCI spin determinant printing, contributions to CSF-ICE
   Dipayan Datta          : RHF DLPNO-CCSD density
   Achintya Kumar Dutta   : EOM-CC, STEOM-CC
   Dmitry Ganyushin       : Spin-Orbit,Spin-Spin,Magnetic field MRCI
   Miquel Garcia          : C-PCM and meta-GGA Hessian, CC/C-PCM, Gaussian charge scheme
   Yang Guo               : DLPNO-NEVPT2, F12-NEVPT2, CIM, IAO-localization
   Andreas Hansen         : Spin unrestricted coupled pair/coupled cluster methods
   Benjamin Helmich-Paris : MC-RPA, TRAH-SCF, COSX integrals
   Lee Huntington         : MR-EOM, pCC
   Robert Izsak           : Overlap fitted RIJCOSX, COSX-SCS-MP3, EOM
   Marcus Kettner         : VPT2
   Christian Kollmar      : KDIIS, OOCD, Brueckner-CCSD(T), CCSD density, CASPT2, CASPT2-K
   Simone Kossmann        : Meta GGA functionals, TD-DFT gradient, OOMP2, MP2 Hessian
   Martin Krupicka        : Initial AUTO-CI
   Lucas Lang             : DCDCAS
   Marvin Lechner         : AUTO-CI (C++ implementation), FIC-MRCC
   Dagmar Lenk            : GEPOL surface, SMD
   Dimitrios Liakos       : Extrapolation schemes; Compound Job, initial MDCI parallelization
   Dimitrios Manganas     : Further ROCIS development; embedding schemes
   Dimitrios Pantazis     : SARC Basis sets
   Anastasios Papadopoulos: AUTO-CI, single reference methods and gradients
   Taras Petrenko         : DFT Hessian,TD-DFT gradient, ASA, ECA, R-Raman, ABS, FL, XAS/XES, NRVS
   Peter Pinski           : DLPNO-MP2, DLPNO-MP2 Gradient
   Christoph Reimann      : Effective Core Potentials
   Marius Retegan         : Local ZFS, SOC
   Christoph Riplinger    : Optimizer, TS searches, QM/MM, DLPNO-CCSD(T), (RO)-DLPNO pert. Triples
   Tobias Risthaus        : Range-separated hybrids, TD-DFT gradient, RPA, STAB
   Michael Roemelt        : Original ROCIS implementation
   Masaaki Saitow         : Open-shell DLPNO-CCSD energy and density
   Barbara Sandhoefer     : DKH picture change effects
   Avijit Sen             : IP-ROCIS
   Kantharuban Sivalingam : CASSCF convergence, NEVPT2, FIC-MRCI
   Bernardo de Souza      : ESD, SOC TD-DFT
   Georgi Stoychev        : AutoAux, RI-MP2 NMR, DLPNO-MP2 response
   Willem Van den Heuvel  : Paramagnetic NMR
   Boris Wezisla          : Elementary symmetry handling
   Frank Wennmohs         : Technical directorship


 We gratefully acknowledge several colleagues who have allowed us to
 interface, adapt or use parts of their codes:
   Stefan Grimme, W. Hujo, H. Kruse, P. Pracht,  : VdW corrections, initial TS optimization,
                  C. Bannwarth, S. Ehlert          DFT functionals, gCP, sTDA/sTD-DF
   Ed Valeev, F. Pavosevic, A. Kumar             : LibInt (2-el integral package), F12 methods
   Garnet Chan, S. Sharma, J. Yang, R. Olivares  : DMRG
   Ulf Ekstrom                                   : XCFun DFT Library
   Mihaly Kallay                                 : mrcc  (arbitrary order and MRCC methods)
   Jiri Pittner, Ondrej Demel                    : Mk-CCSD
   Frank Weinhold                                : gennbo (NPA and NBO analysis)
   Christopher J. Cramer and Donald G. Truhlar   : smd solvation model
   Lars Goerigk                                  : TD-DFT with DH, B97 family of functionals
   V. Asgeirsson, H. Jonsson                     : NEB implementation
   FAccTs GmbH                                   : IRC, NEB, NEB-TS, DLPNO-Multilevel, CI-OPT
                                                   MM, QMMM, 2- and 3-layer-ONIOM, Crystal-QMMM,
                                                   LR-CPCM, SF, NACMEs, symmetry and pop. for TD-DFT,
                                                   nearIR, NL-DFT gradient (VV10), updates on ESD,
                                                   ML-optimized integration grids
   S Lehtola, MJT Oliveira, MAL Marques          : LibXC Library
   Liviu Ungur et al                             : ANISO software


 Your calculation uses the libint2 library for the computation of 2-el integrals
 For citations please refer to: http://libint.valeyev.net

 Your ORCA version has been built with support for libXC version: 5.1.0
 For citations please refer to: https://tddft.org/programs/libxc/

 This ORCA versions uses:
   CBLAS   interface :  Fast vector & matrix operations
   LAPACKE interface :  Fast linear algebra routines
   Shared memory     :  Shared parallel matrices


Your calculation utilizes the atom-pairwise dispersion correction
based on tight binding partial charges (D4)
Cite in your paper:
E.Caldeweyher, C.Bannwarth, S.Grimme, J.Chem.Phys., (2017), 147, 034112.
E.Caldeweyher, S.Ehlert, A.Hansen, H.Neugebauer, S.Grimme, J.Chem.Phys., (2018), in progress.
   

================================================================================

----- Orbital basis set information -----
Your calculation utilizes the basis: 6-311+G**
   H, Li - Ne  : R. Krishnan, J. S. Binkley, R. Seeger and J. A. Pople, J. Chem. Phys. 72, 650 (1980).
   Na - Ar     : A. D. McLean and G. S. Chandler J. Chem. Phys. 72, 5639, (1980).
   K  - Ca     : J.-P. Blaudeau, M. P. McGrath, L. A. Curtiss and L. Radom, J. Chem. Phys. 107, 5016 (1997).
   Ga - Kr     : L. A. Curtiss, M. P. McGrath, J.-P. Blandeau, N. E. Davis, R. C. Binning and L. Radom, J. Chem. Phys. 103, 6104 (1995).
   Pol./Diff.
   H, Li - Cl  : T. Clark, J. Chandrasekhar and P. v. R. Schleyer, J. Comp. Chem. 4, 294 (1983).
   H - Ne      : M. J. Frisch, J. A. Pople and J. S. Binkley, J. Chem. Phys. 80, 3265 (1984).

----- AuxJ basis set information -----
Your calculation utilizes the auxiliary basis: def2/J
   F. Weigend, Phys. Chem. Chem. Phys. 8, 1057 (2006).

================================================================================
                                        WARNINGS
                       Please study these warnings very carefully!
================================================================================

INFO   : Checking CIS options ...

WARNING: CIS/ROCIS methods need fully converged wavefunctions
  ===> : Setting SCFConvForced true
         You can overwrite this default with %scf ConvForced false 


INFO   : the flag for use of the SHARK integral package has been found!

================================================================================
                                       INPUT FILE
================================================================================
NAME = Stone-Wales_defect_loss_ten.inp
|  1> !b3lyp 6-311+g** d4 moread UKS
|  2> 
|  3> %moinp "Stone-Wales_defect_loss_ten_6.0.gbw"
|  4> 
|  5> %scf
|  6>   stabperform true
|  7>   stabdtol 0.00001
|  8>   stabrtol 0.00001
|  9>   end
| 10>   
| 11> %maxcore 5000
| 12> %pal
| 13> nprocs 8
| 14> end
| 15> 
| 16> %tddft
| 17>   nroots 1000
| 18>   end
| 19> 
| 20> * xyz 0 1
| 21>   C   2.68566939094817     -3.24419531979271      0.00419000251069
| 22>   C   1.64151304950243     -3.93921929497949      0.00346674379640
| 23>   C   0.48891192454862     -3.14878212682349      0.00426335474914
| 24>   C   -0.87959778671734     -3.26485604440161      0.00413200299237
| 25>   C   -1.92677224219034     -2.62356986876759      0.00478733065758
| 26>   C   -2.31244064055646     -1.29126614310345      0.00615293283795
| 27>   C   -3.51945602634113     -0.56279779955904      0.00688720048400
| 28>   C   -3.71005690226996      0.65901695885447      0.00812714049746
| 29>   C   -2.73083056642153      1.67084536275177      0.00915172816293
| 30>   C   -2.52053346599054      3.05334738678102      0.01053830959636
| 31>   C   -1.43920903015017      3.66748714446935      0.01114822984055
| 32>   C   -0.13860687552682      3.15362364543364      0.01062903155154
| 33>   C   1.22887595625879      3.50025214145098      0.01097462320437
| 34>   C   2.15521262010293      2.68538912366175      0.01016293589238
| 35>   C   2.21494515479346      1.26804528302998      0.00874538737329
| 36>   C   3.40338374998569      0.50683044906403      0.00800635369006
| 37>   C   3.51322208096139     -0.86343440531594      0.00663207622935
| 38>   C   2.51703590367707     -1.85026751602127      0.00561244925883
| 39>   C   0.27575251676663     -0.56037594900003      0.00688857474980
| 40>   C   -1.44613721702936      1.01554581742528      0.00848919233760
| 41>   C   -1.20581905157087     -0.37030790205319      0.00708750911907
| 42>   C   1.01077204478199     -1.72941150786574      0.00571403008810
| 43>   H   4.32468305369909      1.07602879006055      0.00859026076588
| 44>   H   4.52328382936289     -1.26007436523378      0.00624908514447
| 45>   C   0.86278278107715      0.79662632933767      0.00826009236128
| 46>   C   -0.21523425170174      1.71497981059684      0.00918342210856
| 47> **                         ****END OF INPUT****
================================================================================

                       ****************************
                       * Single Point Calculation *
                       ****************************

---------------------------------
CARTESIAN COORDINATES (ANGSTROEM)
---------------------------------
  C      2.685669   -3.244195    0.004190
  C      1.641513   -3.939219    0.003467
  C      0.488912   -3.148782    0.004263
  C     -0.879598   -3.264856    0.004132
  C     -1.926772   -2.623570    0.004787
  C     -2.312441   -1.291266    0.006153
  C     -3.519456   -0.562798    0.006887
  C     -3.710057    0.659017    0.008127
  C     -2.730831    1.670845    0.009152
  C     -2.520533    3.053347    0.010538
  C     -1.439209    3.667487    0.011148
  C     -0.138607    3.153624    0.010629
  C      1.228876    3.500252    0.010975
  C      2.155213    2.685389    0.010163
  C      2.214945    1.268045    0.008745
  C      3.403384    0.506830    0.008006
  C      3.513222   -0.863434    0.006632
  C      2.517036   -1.850268    0.005612
  C      0.275753   -0.560376    0.006889
  C     -1.446137    1.015546    0.008489
  C     -1.205819   -0.370308    0.007088
  C      1.010772   -1.729412    0.005714
  H      4.324683    1.076029    0.008590
  H      4.523284   -1.260074    0.006249
  C      0.862783    0.796626    0.008260
  C     -0.215234    1.714980    0.009183

----------------------------
CARTESIAN COORDINATES (A.U.)
----------------------------
  NO LB      ZA    FRAG     MASS         X           Y           Z
   0 C     6.0000    0    12.011    5.075180   -6.130641    0.007918
   1 C     6.0000    0    12.011    3.102010   -7.444046    0.006551
   2 C     6.0000    0    12.011    0.923910   -5.950336    0.008057
   3 C     6.0000    0    12.011   -1.662199   -6.169684    0.007808
   4 C     6.0000    0    12.011   -3.641072   -4.957829    0.009047
   5 C     6.0000    0    12.011   -4.369880   -2.440139    0.011627
   6 C     6.0000    0    12.011   -6.650808   -1.063534    0.013015
   7 C     6.0000    0    12.011   -7.010991    1.245362    0.015358
   8 C     6.0000    0    12.011   -5.160522    3.157440    0.017294
   9 C     6.0000    0    12.011   -4.763118    5.769990    0.019915
  10 C     6.0000    0    12.011   -2.719711    6.930546    0.021067
  11 C     6.0000    0    12.011   -0.261929    5.959485    0.020086
  12 C     6.0000    0    12.011    2.322239    6.614518    0.020739
  13 C     6.0000    0    12.011    4.072762    5.074650    0.019205
  14 C     6.0000    0    12.011    4.185640    2.396258    0.016526
  15 C     6.0000    0    12.011    6.431463    0.957771    0.015130
  16 C     6.0000    0    12.011    6.639028   -1.631655    0.012533
  17 C     6.0000    0    12.011    4.756509   -3.496499    0.010606
  18 C     6.0000    0    12.011    0.521097   -1.058957    0.013018
  19 C     6.0000    0    12.011   -2.732803    1.919103    0.016042
  20 C     6.0000    0    12.011   -2.278668   -0.699781    0.013393
  21 C     6.0000    0    12.011    1.910082   -3.268114    0.010798
  22 H     1.0000    0     1.008    8.172467    2.033400    0.016233
  23 H     1.0000    0     1.008    8.547768   -2.381195    0.011809
  24 C     6.0000    0    12.011    1.630423    1.505406    0.015609
  25 C     6.0000    0    12.011   -0.406734    3.240842    0.017354

--------------------------------
INTERNAL COORDINATES (ANGSTROEM)
--------------------------------
 C      0   0   0     0.000000000000     0.00000000     0.00000000
 C      1   0   0     1.254321057213     0.00000000     0.00000000
 C      2   1   0     1.397598262963   111.90919624     0.00000000
 C      3   2   1     1.373423460344   140.71012222   180.00017609
 C      4   3   2     1.227934334038   143.66872301   179.99920613
 C      5   4   3     1.387002233519   137.62756976     0.00000000
 C      6   5   4     1.409805947007   137.25658806   179.99939457
 C      7   6   5     1.236592711944   129.97876622   180.00087330
 C      8   7   6     1.408077407507   127.07153779     0.00000000
 C      9   8   7     1.398405749238   144.58725691   179.99889793
 C     10   9   8     1.243555607732   128.24363250   180.00104016
 C     11  10   9     1.398435529375   128.84669910     0.00000000
 C     12  11  10     1.410730565669   144.21746696   180.00030482
 C     13  12  11     1.233734984257   124.43941450   179.99947691
 C     14  13  12     1.418602674367   133.75011425     0.00000000
 C     15  14  13     1.411323798483   125.05349880   180.00089374
 C     16  15  14     1.374660728594   127.22319553   180.00025223
 C     17  16  15     1.402222353208   130.14683658     0.00000000
 C     18  17  16     2.585956902891   105.34915053     0.00000000
 C      9   8   7     1.442170217080   107.03654983     0.00000000
 C     20   9   8     1.406536639110   126.86305679     0.00000000
 C     19  18  17     1.380905219054    27.91971918   180.00024207
 H     16  15  14     1.082949444510   115.65107572     0.00000000
 H     17  16  15     1.085148902257   116.02233100   179.99962569
 C     15  14  13     1.431984340105   106.80740403     0.00000000
 C     20   9   8     1.415743798436   123.36817785   179.99930604

---------------------------
INTERNAL COORDINATES (A.U.)
---------------------------
 C      0   0   0     0.000000000000     0.00000000     0.00000000
 C      1   0   0     2.370323282144     0.00000000     0.00000000
 C      2   1   0     2.641077962244   111.90919624     0.00000000
 C      3   2   1     2.595394205953   140.71012222   180.00017609
 C      4   3   2     2.320459601770   143.66872301   179.99920613
 C      5   4   3     2.621054368488   137.62756976     0.00000000
 C      6   5   4     2.664147141817   137.25658806   179.99939457
 C      7   6   5     2.336821564777   129.97876622   180.00087330
 C      8   7   6     2.660880675551   127.07153779     0.00000000
 C      9   8   7     2.642603890161   144.58725691   179.99889793
 C     10   9   8     2.349979530915   128.24363250   180.00104016
 C     11  10   9     2.642660166464   128.84669910     0.00000000
 C     12  11  10     2.665894417867   144.21746696   180.00030482
 C     13  12  11     2.331421242083   124.43941450   179.99947691
 C     14  13  12     2.680770547402   133.75011425     0.00000000
 C     15  14  13     2.667015465417   125.05349880   180.00089374
 C     16  15  14     2.597732304100   127.22319553   180.00025223
 C     17  16  15     2.649816226425   130.14683658     0.00000000
 C     18  17  16     4.886750340587   105.34915053     0.00000000
 C      9   8   7     2.725306748778   107.03654983     0.00000000
 C     20   9   8     2.657969045243   126.86305679     0.00000000
 C     19  18  17     2.609532680915    27.91971918   180.00024207
 H     16  15  14     2.046477867005   115.65107572     0.00000000
 H     17  16  15     2.050634239791   116.02233100   179.99962569
 C     15  14  13     2.706058230862   106.80740403     0.00000000
 C     20   9   8     2.675368054842   123.36817785   179.99930604

---------------------
BASIS SET INFORMATION
---------------------
There are 2 groups of distinct atoms

 Group   1 Type C   : 12s6p1d contracted to 5s4p1d pattern {63111/3111/1}
 Group   2 Type H   : 5s1p contracted to 3s1p pattern {311/1}

Atom   0C    basis set group =>   1
Atom   1C    basis set group =>   1
Atom   2C    basis set group =>   1
Atom   3C    basis set group =>   1
Atom   4C    basis set group =>   1
Atom   5C    basis set group =>   1
Atom   6C    basis set group =>   1
Atom   7C    basis set group =>   1
Atom   8C    basis set group =>   1
Atom   9C    basis set group =>   1
Atom  10C    basis set group =>   1
Atom  11C    basis set group =>   1
Atom  12C    basis set group =>   1
Atom  13C    basis set group =>   1
Atom  14C    basis set group =>   1
Atom  15C    basis set group =>   1
Atom  16C    basis set group =>   1
Atom  17C    basis set group =>   1
Atom  18C    basis set group =>   1
Atom  19C    basis set group =>   1
Atom  20C    basis set group =>   1
Atom  21C    basis set group =>   1
Atom  22H    basis set group =>   2
Atom  23H    basis set group =>   2
Atom  24C    basis set group =>   1
Atom  25C    basis set group =>   1
---------------------------------
AUXILIARY/J BASIS SET INFORMATION
---------------------------------
There are 2 groups of distinct atoms

 Group   1 Type C   : 12s5p4d2f1g contracted to 6s4p3d1f1g pattern {711111/2111/211/2/1}
 Group   2 Type H   : 5s2p1d contracted to 3s1p1d pattern {311/2/1}

Atom   0C    basis set group =>   1
Atom   1C    basis set group =>   1
Atom   2C    basis set group =>   1
Atom   3C    basis set group =>   1
Atom   4C    basis set group =>   1
Atom   5C    basis set group =>   1
Atom   6C    basis set group =>   1
Atom   7C    basis set group =>   1
Atom   8C    basis set group =>   1
Atom   9C    basis set group =>   1
Atom  10C    basis set group =>   1
Atom  11C    basis set group =>   1
Atom  12C    basis set group =>   1
Atom  13C    basis set group =>   1
Atom  14C    basis set group =>   1
Atom  15C    basis set group =>   1
Atom  16C    basis set group =>   1
Atom  17C    basis set group =>   1
Atom  18C    basis set group =>   1
Atom  19C    basis set group =>   1
Atom  20C    basis set group =>   1
Atom  21C    basis set group =>   1
Atom  22H    basis set group =>   2
Atom  23H    basis set group =>   2
Atom  24C    basis set group =>   1
Atom  25C    basis set group =>   1


           ************************************************************
           *        Program running with 8 parallel MPI-processes     *
           *              working on a common directory               *
           ************************************************************
------------------------------------------------------------------------------
                           ORCA GTO INTEGRAL CALCULATION
                           -- RI-GTO INTEGRALS CHOSEN --
------------------------------------------------------------------------------
------------------------------------------------------------------------------
                   ___                                                        
                  /   \      - P O W E R E D   B Y -                         
                 /     \                                                     
                 |  |  |   _    _      __       _____    __    __             
                 |  |  |  | |  | |    /  \     |  _  \  |  |  /  |          
                  \  \/   | |  | |   /    \    | | | |  |  | /  /          
                 / \  \   | |__| |  /  /\  \   | |_| |  |  |/  /          
                |  |  |   |  __  | /  /__\  \  |    /   |      \           
                |  |  |   | |  | | |   __   |  |    \   |  |\   \          
                \     /   | |  | | |  |  |  |  | |\  \  |  | \   \       
                 \___/    |_|  |_| |__|  |__|  |_| \__\ |__|  \__/        
                                                                              
                      - O R C A' S   B I G   F R I E N D -                    
                                      &                                       
                       - I N T E G R A L  F E E D E R -                       
                                                                              
 v1 FN, 2020, v2 2021                                                         
------------------------------------------------------------------------------


Reading SHARK input file Stone-Wales_defect_loss_ten.SHARKINP.tmp ... ok
----------------------
SHARK INTEGRAL PACKAGE
----------------------

Number of atoms                             ...     26
Number of basis functions                   ...    540
Number of shells                            ...    248
Maximum angular momentum                    ...      2
Integral batch strategy                     ... SHARK/LIBINT Hybrid
RI-J (if used) integral strategy            ... SPLIT-RIJ (Revised 2003 algorithm where possible)
Printlevel                                  ...      1
Contraction scheme used                     ... SEGMENTED contraction
Coulomb Range Separation                    ... NOT USED
Exchange Range Separation                   ... NOT USED
Finite Nucleus Model                        ... NOT USED
Auxiliary Coulomb fitting basis             ... AVAILABLE
   # of basis functions in Aux-J            ...   1198
   # of shells in Aux-J                     ...    370
   Maximum angular momentum in Aux-J        ...      4
Auxiliary J/K fitting basis                 ... NOT available
Auxiliary Correlation fitting basis         ... NOT available
Auxiliary 'external' fitting basis          ... NOT available
Integral threshold                          ...     1.000000e-10
Primitive cut-off                           ...     1.000000e-11
Primitive pair pre-selection threshold      ...     1.000000e-11

Calculating pre-screening integrals         ... done (  0.0 sec) Dimension = 248
Organizing shell pair data                  ... done (  0.1 sec)
Shell pair information
Total number of shell pairs                 ...     30876
Shell pairs after pre-screening             ...     25369
Total number of primitive shell pairs       ...    110256
Primitive shell pairs kept                  ...     59305
          la=0 lb=0:   6217 shell pairs
          la=1 lb=0:  10390 shell pairs
          la=1 lb=1:   4337 shell pairs
          la=2 lb=0:   2263 shell pairs
          la=2 lb=1:   1935 shell pairs
          la=2 lb=2:    227 shell pairs

Calculating one electron integrals          ... done (  0.0 sec)
Calculating RI/J V-Matrix + Cholesky decomp.... done (  0.1 sec)
Calculating Nuclear repulsion               ... done (  0.0 sec) ENN=   1641.786136648407 Eh

SHARK setup successfully completed in   0.6 seconds

Maximum memory used throughout the entire GTOINT-calculation: 35.8 MB


           ************************************************************
           *        Program running with 8 parallel MPI-processes     *
           *              working on a common directory               *
           ************************************************************
-------------------------------------------------------------------------------
                                 ORCA SCF
-------------------------------------------------------------------------------

------------
SCF SETTINGS
------------
Hamiltonian:
 Density Functional     Method          .... DFT(GTOs)
 Exchange Functional    Exchange        .... B88
   X-Alpha parameter    XAlpha          ....  0.666667
   Becke's b parameter  XBeta           ....  0.004200
 Correlation Functional Correlation     .... LYP
 LDA part of GGA corr.  LDAOpt          .... VWN-5
 Gradients option       PostSCFGGA      .... off
 Hybrid DFT is turned on
   Fraction HF Exchange ScalHFX         ....  0.200000
   Scaling of DF-GGA-X  ScalDFX         ....  0.720000
   Scaling of DF-GGA-C  ScalDFC         ....  0.810000
   Scaling of DF-LDA-C  ScalLDAC        ....  1.000000
   Perturbative correction              ....  0.000000
   Density functional embedding theory  .... OFF
   NL short-range parameter             ....  4.800000
 RI-approximation to the Coulomb term is turned on
   Number of AuxJ basis functions       .... 1198
   RIJ-COSX (HFX calculated with COS-X)).... on


General Settings:
 Integral files         IntName         .... Stone-Wales_defect_loss_ten
 Hartree-Fock type      HFTyp           .... UHF
 Total Charge           Charge          ....    0
 Multiplicity           Mult            ....    1
 Number of Electrons    NEL             ....  146
 Basis Dimension        Dim             ....  540
 Nuclear Repulsion      ENuc            ....   1641.7861366484 Eh

Convergence Acceleration:
 DIIS                   CNVDIIS         .... on
   Start iteration      DIISMaxIt       ....    12
   Startup error        DIISStart       ....  0.200000
   # of expansion vecs  DIISMaxEq       ....     5
   Bias factor          DIISBfac        ....   1.050
   Max. coefficient     DIISMaxC        ....  10.000
 Trust-Rad. Augm. Hess. CNVTRAH         .... auto
   Auto Start mean grad. ratio tolernc. ....  1.125000
   Auto Start start iteration           ....     1
   Auto Start num. interpolation iter.  ....    10
   Max. Number of Micro iterations      ....    16
   Max. Number of Macro iterations      .... Maxiter - #DIIS iter
   Number of Davidson start vectors     ....     2
   Converg. threshold I  (grad. norm)   ....   5.000e-05
   Converg. threshold II (energy diff.) ....   1.000e-06
   Grad. Scal. Fac. for Micro threshold ....   0.100
   Minimum threshold for Micro iter.    ....   0.010
   NR start threshold (gradient norm)   ....   0.001
   Initial trust radius                 ....   0.400
   Minimum AH scaling param. (alpha)    ....   1.000
   Maximum AH scaling param. (alpha)    .... 1000.000
   Orbital update algorithm             .... Taylor
   White noise on init. David. guess    .... on
   Maximum white noise                  ....   0.010
   Quad. conv. algorithm                .... NR
 SOSCF                  CNVSOSCF        .... off
 Level Shifting         CNVShift        .... on
   Level shift para.    LevelShift      ....    0.2500
   Turn off err/grad.   ShiftErr        ....    0.0010
 Zerner damping         CNVZerner       .... off
 Static damping         CNVDamp         .... on
   Fraction old density DampFac         ....    0.7000
   Max. Damping (<1)    DampMax         ....    0.9800
   Min. Damping (>=0)   DampMin         ....    0.0000
   Turn off err/grad.   DampErr         ....    0.1000
 Fernandez-Rico         CNVRico         .... off

SCF Procedure:
 Maximum # iterations   MaxIter         ....   125
 SCF integral mode      SCFMode         .... Direct
   Integral package                     .... SHARK and LIBINT hybrid scheme
 Reset frequency        DirectResetFreq ....    20
 Integral Threshold     Thresh          ....  1.000e-10 Eh
 Primitive CutOff       TCut            ....  1.000e-11 Eh

Convergence Tolerance:
 Convergence Check Mode ConvCheckMode   .... Total+1el-Energy
 Convergence forced     ConvForced      .... 1
 Energy Change          TolE            ....  1.000e-06 Eh
 1-El. energy change                    ....  1.000e-03 Eh
 DIIS Error             TolErr          ....  1.000e-06


Diagonalization of the overlap matrix:
Smallest eigenvalue                        ... 7.677e-10
Time for diagonalization                   ...    0.025 sec
Threshold for overlap eigenvalues          ... 1.000e-08
Number of eigenvalues below threshold      ... 5
Smallest eigenvalue above threshold        ... 1.224e-08
Time for construction of square roots      ...    0.043 sec
Total time needed                          ...    0.069 sec

---------------------
INITIAL GUESS: MOREAD
---------------------
Guess MOs are being read from file: Stone-Wales_defect_loss_ten_6.0.gbw
Input Geometry matches current geometry (good)
Input basis set matches current basis set (good)
MOs were renormalized
MOs were reorthogonalized (Cholesky)
                      ------------------
                      INITIAL GUESS DONE (   0.1 sec)
                      ------------------
-------------------
DFT GRID GENERATION
-------------------

General Integration Accuracy     IntAcc      ... 4.388
Radial Grid Type                 RadialGrid  ... OptM3 with GC (2021)
Angular Grid (max. ang.)         AngularGrid ... 4 (Lebedev-302)
Angular grid pruning method      GridPruning ... 4 (adaptive)
Weight generation scheme         WeightScheme... Becke
Basis function cutoff            BFCut       ... 1.0000e-10
Integration weight cutoff        WCut        ... 1.0000e-14
Angular grids for H and He will be reduced by one unit
Partially contracted basis set               ... off
Rotationally invariant grid construction     ... off

Total number of grid points                  ...   154815
Total number of batches                      ...     2436
Average number of points per batch           ...       63
Average number of grid points per atom       ...     5954
Time for grid setup =    1.092 sec

--------------------
COSX GRID GENERATION
--------------------

GRIDX 1
-------
General Integration Accuracy     IntAcc      ... 3.816
Radial Grid Type                 RadialGrid  ... OptM3 with GC (2021)
Angular Grid (max. ang.)         AngularGrid ... 1 (Lebedev-50)
Angular grid pruning method      GridPruning ... 4 (adaptive)
Weight generation scheme         WeightScheme... Becke
Basis function cutoff            BFCut       ... 1.0000e-10
Integration weight cutoff        WCut        ... 1.0000e-14
Angular grids for H and He will be reduced by one unit
Partially contracted basis set               ... on
Rotationally invariant grid construction     ... off

Total number of grid points                  ...    19547
Total number of batches                      ...      317
Average number of points per batch           ...       61
Average number of grid points per atom       ...      752
UseSFitting                                  ... on

GRIDX 2
-------
General Integration Accuracy     IntAcc      ... 4.020
Radial Grid Type                 RadialGrid  ... OptM3 with GC (2021)
Angular Grid (max. ang.)         AngularGrid ... 2 (Lebedev-110)
Angular grid pruning method      GridPruning ... 4 (adaptive)
Weight generation scheme         WeightScheme... Becke
Basis function cutoff            BFCut       ... 1.0000e-10
Integration weight cutoff        WCut        ... 1.0000e-14
Angular grids for H and He will be reduced by one unit
Partially contracted basis set               ... on
Rotationally invariant grid construction     ... off

Total number of grid points                  ...    49924
Total number of batches                      ...      793
Average number of points per batch           ...       62
Average number of grid points per atom       ...     1920
UseSFitting                                  ... on

GRIDX 3
-------
General Integration Accuracy     IntAcc      ... 4.338
Radial Grid Type                 RadialGrid  ... OptM3 with GC (2021)
Angular Grid (max. ang.)         AngularGrid ... 3 (Lebedev-194)
Angular grid pruning method      GridPruning ... 4 (adaptive)
Weight generation scheme         WeightScheme... Becke
Basis function cutoff            BFCut       ... 1.0000e-10
Integration weight cutoff        WCut        ... 1.0000e-14
Angular grids for H and He will be reduced by one unit
Partially contracted basis set               ... on
Rotationally invariant grid construction     ... off

Total number of grid points                  ...   107934
Total number of batches                      ...     1701
Average number of points per batch           ...       63
Average number of grid points per atom       ...     4151
UseSFitting                                  ... on

Time for X-Grid setup             =    1.664 sec

--------------
SCF ITERATIONS
--------------
ITER       Energy         Delta-E        Max-DP      RMS-DP      [F,P]     Damp
               ***  Starting incremental Fock matrix formation  ***
  0   -914.7749849359   0.000000000000 1.25002009  0.01428335  0.0000847 0.7000
                 **** Energy Check signals convergence ****

               *****************************************************
               *                     SUCCESS                       *
               *           SCF CONVERGED AFTER   1 CYCLES          *
               *****************************************************


------------------------------------------------------------------------------
                          SCF STABILITY ANALYSIS                              
------------------------------------------------------------------------------


---------------
TD-DFT XC SETUP
---------------

DFT calculation                         ... on
Name of the grid file                   ... Stone-Wales_defect_loss_ten.grid.tmp
Exchange functional (SCF)               ... B88
Exchange functional (TD-DFT)            ... B88
   X-Alpha parameter    XAlpha (SCF)    ...  0.666667
   X-Alpha parameter    XAlpha (TD-DFT) ...  0.666667
   Becke's b parameter  XBeta (SCF)     ...  0.004200
   Becke's b parameter  XBeta (TD-DFT)  ...  0.004200
Correlation functional (SCF)            ... LYP
Correlation functional (TD-DFT)         ... LYP
 LDA part of GGA corr.  LDAOpt (SCF)    ... VWN-5
 LDA part of GGA corr.  LDAOpt (TD-DFT) ... VWN-5
Hybrid DFT                              ... on
   Exchange mixing (SCF)                ...  0.200
   Exchange mixing (TD-DFT)             ...  0.200
   GGA exch. scaling(SCF)               ...  0.720
   GGA exch. scaling (TD-DFT)           ...  0.720
   GGA corr. scaling (SCF)              ...  0.810
   GGA corr. scaling (TD-DFT)           ...  0.810

Electron density on the grid   ... found on disk
Building xc-kernel on the grid ... done
                    *** TD-DFT CALCULATION INITIALIZED ***

                       ****Iteration    0****

   Memory handling for direct AO based CIS:
   Memory per vector needed      ...    17 MB
   Memory needed                 ...   104 MB
   Memory available              ...  5000 MB
   Number of vectors per batch   ...   287
   Number of batches             ...     1
   Time for densities:     0.101
   Time for XC-Integration:    12.401
   Time for K (COSX):    87.520
   Time for RI-J (Direct):     3.222
   Time for Sigma-Completion:     0.114
   Lowest Energy          :     0.046919721662
   Maximum Energy change  :     0.057443028663 (vector 2)
   Maximum residual norm  :     0.002217576897

                       ****Iteration    1****
   Time for densities:     0.065
   Time for XC-Integration:     7.542
   Time for K (COSX):    77.686
   Time for RI-J (Direct):     1.977
   Time for Sigma-Completion:     0.071
   Lowest Energy          :     0.041506391934
   Maximum Energy change  :     0.006318360524 (vector 1)
   Maximum residual norm  :     0.003057991973

                       ****Iteration    2****
   Time for densities:     0.064
   Time for XC-Integration:     7.742
   Time for K (COSX):    77.516
   Time for RI-J (Direct):     1.945
   Time for Sigma-Completion:     0.061
   Lowest Energy          :     0.040984310122
   Maximum Energy change  :     0.003243094643 (vector 1)
   Maximum residual norm  :     0.001051887942

                       ****Iteration    3****
   Time for densities:     0.075
   Time for XC-Integration:     7.747
   Time for K (COSX):    77.786
   Time for RI-J (Direct):     1.935
   Time for Sigma-Completion:     0.052
   Lowest Energy          :     0.039261316760
   Maximum Energy change  :     0.001722993362 (vector 0)
   Maximum residual norm  :     0.001276047683

                       ****Iteration    4****
   Time for densities:     0.057
   Time for XC-Integration:     8.089
   Time for K (COSX):    77.603
   Time for RI-J (Direct):     1.996
   Time for Sigma-Completion:     0.049
   Lowest Energy          :     0.035787433953
   Maximum Energy change  :     0.003473882808 (vector 0)
   Maximum residual norm  :     0.001292613807

                       ****Iteration    5****
   Time for densities:     0.067
   Time for XC-Integration:     8.196
   Time for K (COSX):    77.698
   Time for RI-J (Direct):     1.941
   Time for Sigma-Completion:     0.050
   Lowest Energy          :     0.034608991624
   Maximum Energy change  :     0.001178442329 (vector 0)
   Maximum residual norm  :     0.000395035074

                       ****Iteration    6****
   Time for densities:     0.049
   Time for XC-Integration:     8.341
   Time for K (COSX):    77.621
   Time for RI-J (Direct):     1.966
   Time for Sigma-Completion:     0.060
   Lowest Energy          :     0.033599685270
   Maximum Energy change  :     0.001009306354 (vector 0)
   Maximum residual norm  :     0.000854740806

                       ****Iteration    7****
   Time for densities:     0.054
   Time for XC-Integration:     8.413
   Time for K (COSX):    77.641
   Time for RI-J (Direct):     1.986
   Time for Sigma-Completion:     0.046
   Lowest Energy          :     0.032340957980
   Maximum Energy change  :     0.001258727290 (vector 0)
   Maximum residual norm  :     0.000420522157

                       ****Iteration    8****
   Time for densities:     0.070
   Time for XC-Integration:     8.511
   Time for K (COSX):    77.761
   Time for RI-J (Direct):     1.973
   Time for Sigma-Completion:     0.036
   Lowest Energy          :     0.031660639834
   Maximum Energy change  :     0.001835606625 (vector 2)
   Maximum residual norm  :     0.002095994291

                       ****Iteration    9****
   Time for densities:     0.061
   Time for XC-Integration:     8.374
   Time for K (COSX):    77.639
   Time for RI-J (Direct):     1.989
   Time for Sigma-Completion:     0.054
   Lowest Energy          :     0.030559932988
   Maximum Energy change  :     0.004878207096 (vector 2)
   Maximum residual norm  :     0.002538332897

                       ****Iteration   10****
   Time for densities:     0.068
   Time for XC-Integration:     8.529
   Time for K (COSX):    77.516
   Time for RI-J (Direct):     1.946
   Time for Sigma-Completion:     0.041
   Lowest Energy          :     0.029776691872
   Maximum Energy change  :     0.002737047647 (vector 2)
   Maximum residual norm  :     0.001476597378

                       ****Iteration   11****
   Time for densities:     0.060
   Time for XC-Integration:     8.605
   Time for K (COSX):    77.713
   Time for RI-J (Direct):     1.914
   Time for Sigma-Completion:     0.046
   Lowest Energy          :     0.029104748158
   Maximum Energy change  :     0.002048216446 (vector 2)
   Maximum residual norm  :     0.000581604393

                       ****Iteration   12****
   Time for densities:     0.058
   Time for XC-Integration:     8.698
   Time for K (COSX):    77.662
   Time for RI-J (Direct):     1.899
   Time for Sigma-Completion:     0.040
   Lowest Energy          :     0.028684838705
   Maximum Energy change  :     0.000956303765 (vector 1)
   Maximum residual norm  :     0.000424891591

                       ****Iteration   13****
   Time for densities:     0.041
   Time for XC-Integration:     5.775
   Time for K (COSX):    75.097
   Time for RI-J (Direct):     1.408
   Time for Sigma-Completion:     0.021
   Lowest Energy          :     0.028155246574
   Maximum Energy change  :     0.001723014570 (vector 1)
   Maximum residual norm  :     0.002449186036

                       ****Iteration   14****
   Time for densities:     0.044
   Time for XC-Integration:     5.888
   Time for K (COSX):    74.777
   Time for RI-J (Direct):     1.471
   Time for Sigma-Completion:     0.028
   Lowest Energy          :     0.027193438512
   Maximum Energy change  :     0.005125006133 (vector 1)
   Maximum residual norm  :     0.000972823396

                       ****Iteration   15****
   Time for densities:     0.060
   Time for XC-Integration:     8.464
   Time for K (COSX):    77.784
   Time for RI-J (Direct):     1.961
   Time for Sigma-Completion:     0.037
   Lowest Energy          :     0.026803343308
   Maximum Energy change  :     0.000753074781 (vector 1)
   Maximum residual norm  :     0.000198092580

                       ****Iteration   16****
   Time for densities:     0.060
   Time for XC-Integration:     8.566
   Time for K (COSX):    77.521
   Time for RI-J (Direct):     1.999
   Time for Sigma-Completion:     0.042
   Lowest Energy          :     0.026554011255
   Maximum Energy change  :     0.000305989853 (vector 1)
   Maximum residual norm  :     0.000100113290

                       ****Iteration   17****
   Time for densities:     0.059
   Time for XC-Integration:     8.568
   Time for K (COSX):    77.579
   Time for RI-J (Direct):     1.965
   Time for Sigma-Completion:     0.046
   Lowest Energy          :     0.026432325381
   Maximum Energy change  :     0.000130623794 (vector 1)
   Maximum residual norm  :     0.000054710335

                       ****Iteration   18****
   Time for densities:     0.043
   Time for XC-Integration:     8.664
   Time for K (COSX):    77.616
   Time for RI-J (Direct):     1.953
   Time for Sigma-Completion:     0.045
   Lowest Energy          :     0.026327085750
   Maximum Energy change  :     0.000423814172 (vector 2)
   Maximum residual norm  :     0.001053453904

                       ****Iteration   19****
   Time for densities:     0.057
   Time for XC-Integration:     8.593
   Time for K (COSX):    77.598
   Time for RI-J (Direct):     1.905
   Time for Sigma-Completion:     0.059
   Lowest Energy          :     0.025564840950
   Maximum Energy change  :     0.007427511271 (vector 2)
   Maximum residual norm  :     0.001628287927

                       ****Iteration   20****
   Time for densities:     0.068
   Time for XC-Integration:     8.682
   Time for K (COSX):    77.705
   Time for RI-J (Direct):     1.951
   Time for Sigma-Completion:     0.041
   Lowest Energy          :     0.024091627537
   Maximum Energy change  :     0.001473213412 (vector 0)
   Maximum residual norm  :     0.000350579394

                       ****Iteration   21****
   Time for densities:     0.055
   Time for XC-Integration:     8.627
   Time for K (COSX):    77.614
   Time for RI-J (Direct):     1.972
   Time for Sigma-Completion:     0.044
   Lowest Energy          :     0.023818300953
   Maximum Energy change  :     0.000273326584 (vector 0)
   Maximum residual norm  :     0.000071197957

                       ****Iteration   22****
   Time for densities:     0.062
   Time for XC-Integration:     8.777
   Time for K (COSX):    77.576
   Time for RI-J (Direct):     1.964
   Time for Sigma-Completion:     0.053
   Lowest Energy          :     0.023746739765
   Maximum Energy change  :     0.000071561188 (vector 0)
   Maximum residual norm  :     0.000011558471

                       ****Iteration   23****
   Time for densities:     0.066
   Time for XC-Integration:     8.709
   Time for K (COSX):    77.765
   Time for RI-J (Direct):     1.957
   Time for Sigma-Completion:     0.055
   Lowest Energy          :     0.023733052337
   Maximum Energy change  :     0.000013687428 (vector 0)
   Maximum residual norm  :     0.000002082880

      *** CONVERGENCE OF RESIDUAL NORM REACHED ***

----------------------------- 
SCF STABILITY ANALYSIS RESULT 
----------------------------- 

UHF/UKS->UHF/UKS - singlet - internal

   Root    Eigenvalue (au) 
     0       0.023733 
     1       0.026982 
     2       0.032466 

Stability Analysis indicates a stable HF/KS wave function.


Total time for performing the stability analysis:  2125.586sec

Old exchange energy                            =    -24.968009317 Eh
New exchange energy                            =    -24.968033721 Eh
Exchange energy change after final integration =     -0.000024403 Eh
Total energy after final integration           =   -914.775008995 Eh
Final COS-X integration done in                =    22.893 sec

----------------
TOTAL SCF ENERGY
----------------

Total Energy       :         -914.77500900 Eh          -24892.29349 eV

Components:
Nuclear Repulsion  :         1641.78613665 Eh           44675.27203 eV
Electronic Energy  :        -2556.56114564 Eh          -69567.56552 eV
One Electron Energy:        -4493.63320458 Eh         -122277.97599 eV
Two Electron Energy:         1937.07205893 Eh           52710.41047 eV
Max COSX asymmetry :            0.00001746 Eh               0.00048 eV

Virial components:
Potential Energy   :        -1826.40928291 Eh          -49699.12324 eV
Kinetic Energy     :          911.63427391 Eh           24806.82975 eV
Virial Ratio       :            2.00344517


DFT components:
N(Alpha)           :       73.000075637864 electrons
N(Beta)            :       73.000075975775 electrons
N(Total)           :      146.000151613639 electrons
E(X)               :      -99.427391849403 Eh       
E(C)               :       -5.925399975080 Eh       
E(XC)              :     -105.352791824483 Eh       
DFET-embed. en.    :        0.000000000000 Eh       

---------------
SCF CONVERGENCE
---------------

  Last Energy change         ...    3.4380e-07  Tolerance :   1.0000e-06
  Last MAX-Density change    ...    4.4583e-01  Tolerance :   1.0000e-05
  Last RMS-Density change    ...    4.2363e-03  Tolerance :   1.0000e-06
  Last DIIS Error            ...    4.5091e-05  Tolerance :   1.0000e-06

             **** THE GBW FILE WAS UPDATED (Stone-Wales_defect_loss_ten.gbw) ****
             **** DENSITY Stone-Wales_defect_loss_ten.scfp WAS UPDATED ****
             **** ENERGY FILE WAS UPDATED (Stone-Wales_defect_loss_ten.en.tmp) ****
----------------------
UHF SPIN CONTAMINATION
----------------------

Warning: in a DFT calculation there is little theoretical justification to 
         calculate <S**2> as in Hartree-Fock theory. We will do it anyways
         but you should keep in mind that the values have only limited relevance

Expectation value of <S**2>     :     0.290401
Ideal value S*(S+1) for S=0.0   :     0.000000
Deviation                       :     0.290401

             **** THE GBW FILE WAS UPDATED (Stone-Wales_defect_loss_ten.gbw) ****
             **** DENSITY Stone-Wales_defect_loss_ten.scfp WAS UPDATED ****
----------------
ORBITAL ENERGIES
----------------
                 SPIN UP ORBITALS
  NO   OCC          E(Eh)            E(eV) 
   0   1.0000     -10.269243      -279.4403 
   1   1.0000     -10.264017      -279.2981 
   2   1.0000     -10.263240      -279.2770 
   3   1.0000     -10.254488      -279.0388 
   4   1.0000     -10.252452      -278.9834 
   5   1.0000     -10.252247      -278.9778 
   6   1.0000     -10.248561      -278.8775 
   7   1.0000     -10.235664      -278.5266 
   8   1.0000     -10.231771      -278.4206 
   9   1.0000     -10.227047      -278.2921 
  10   1.0000     -10.219803      -278.0950 
  11   1.0000     -10.219407      -278.0842 
  12   1.0000     -10.219272      -278.0805 
  13   1.0000     -10.219260      -278.0802 
  14   1.0000     -10.218022      -278.0465 
  15   1.0000     -10.216992      -278.0185 
  16   1.0000     -10.216238      -277.9980 
  17   1.0000     -10.215232      -277.9706 
  18   1.0000     -10.214573      -277.9527 
  19   1.0000     -10.214062      -277.9388 
  20   1.0000     -10.212157      -277.8869 
  21   1.0000     -10.208492      -277.7872 
  22   1.0000     -10.207287      -277.7544 
  23   1.0000     -10.205056      -277.6937 
  24   1.0000      -0.955611       -26.0035 
  25   1.0000      -0.926019       -25.1983 
  26   1.0000      -0.907228       -24.6869 
  27   1.0000      -0.881770       -23.9942 
  28   1.0000      -0.855649       -23.2834 
  29   1.0000      -0.852349       -23.1936 
  30   1.0000      -0.824194       -22.4274 
  31   1.0000      -0.802058       -21.8251 
  32   1.0000      -0.782262       -21.2864 
  33   1.0000      -0.763662       -20.7803 
  34   1.0000      -0.751675       -20.4541 
  35   1.0000      -0.735475       -20.0133 
  36   1.0000      -0.686179       -18.6719 
  37   1.0000      -0.683093       -18.5879 
  38   1.0000      -0.666377       -18.1330 
  39   1.0000      -0.641700       -17.4615 
  40   1.0000      -0.596070       -16.2199 
  41   1.0000      -0.591698       -16.1009 
  42   1.0000      -0.584176       -15.8962 
  43   1.0000      -0.573398       -15.6030 
  44   1.0000      -0.551079       -14.9956 
  45   1.0000      -0.538743       -14.6600 
  46   1.0000      -0.527645       -14.3580 
  47   1.0000      -0.522680       -14.2228 
  48   1.0000      -0.503975       -13.7139 
  49   1.0000      -0.485380       -13.2079 
  50   1.0000      -0.469828       -12.7847 
  51   1.0000      -0.469721       -12.7818 
  52   1.0000      -0.455908       -12.4059 
  53   1.0000      -0.437004       -11.8915 
  54   1.0000      -0.434694       -11.8286 
  55   1.0000      -0.431577       -11.7438 
  56   1.0000      -0.422811       -11.5053 
  57   1.0000      -0.408358       -11.1120 
  58   1.0000      -0.390214       -10.6183 
  59   1.0000      -0.387963       -10.5570 
  60   1.0000      -0.370420       -10.0796 
  61   1.0000      -0.364542        -9.9197 
  62   1.0000      -0.320605        -8.7241 
  63   1.0000      -0.311493        -8.4761 
  64   1.0000      -0.310401        -8.4464 
  65   1.0000      -0.307512        -8.3678 
  66   1.0000      -0.302093        -8.2204 
  67   1.0000      -0.298006        -8.1092 
  68   1.0000      -0.295939        -8.0529 
  69   1.0000      -0.295191        -8.0326 
  70   1.0000      -0.266274        -7.2457 
  71   1.0000      -0.257176        -6.9981 
  72   1.0000      -0.219369        -5.9693 
  73   0.0000      -0.132973        -3.6184 
  74   0.0000      -0.124623        -3.3912 
  75   0.0000      -0.117295        -3.1918 
  76   0.0000      -0.107456        -2.9240 
  77   0.0000      -0.097729        -2.6593 
  78   0.0000      -0.092707        -2.5227 
  79   0.0000      -0.086282        -2.3479 
  80   0.0000      -0.072792        -1.9808 
  81   0.0000      -0.044007        -1.1975 
  82   0.0000      -0.000050        -0.0014 
  83   0.0000       0.012589         0.3426 
  84   0.0000       0.013015         0.3542 
  85   0.0000       0.019475         0.5299 
  86   0.0000       0.025088         0.6827 
  87   0.0000       0.032232         0.8771 
  88   0.0000       0.037598         1.0231 
  89   0.0000       0.038098         1.0367 
  90   0.0000       0.040833         1.1111 
  91   0.0000       0.041973         1.1421 
  92   0.0000       0.048040         1.3072 
  93   0.0000       0.051558         1.4030 
  94   0.0000       0.054621         1.4863 
  95   0.0000       0.059819         1.6277 
  96   0.0000       0.062883         1.7111 
  97   0.0000       0.064344         1.7509 
  98   0.0000       0.067331         1.8322 
  99   0.0000       0.074326         2.0225 
 100   0.0000       0.077869         2.1189 
 101   0.0000       0.081181         2.2090 
 102   0.0000       0.084608         2.3023 
 103   0.0000       0.087252         2.3742 
 104   0.0000       0.098202         2.6722 
 105   0.0000       0.098319         2.6754 
 106   0.0000       0.099388         2.7045 
 107   0.0000       0.102952         2.8015 
 108   0.0000       0.106863         2.9079 
 109   0.0000       0.111980         3.0471 
 110   0.0000       0.115516         3.1433 
 111   0.0000       0.119129         3.2417 
 112   0.0000       0.127884         3.4799 
 113   0.0000       0.129251         3.5171 
 114   0.0000       0.135662         3.6916 
 115   0.0000       0.139090         3.7848 
 116   0.0000       0.140156         3.8139 
 117   0.0000       0.141910         3.8616 
 118   0.0000       0.142096         3.8666 
 119   0.0000       0.144350         3.9280 
 120   0.0000       0.147547         4.0150 
 121   0.0000       0.148836         4.0500 
 122   0.0000       0.151468         4.1217 
 123   0.0000       0.167532         4.5588 
 124   0.0000       0.167534         4.5588 
 125   0.0000       0.171128         4.6566 
 126   0.0000       0.173612         4.7242 
 127   0.0000       0.176236         4.7956 
 128   0.0000       0.177223         4.8225 
 129   0.0000       0.178597         4.8599 
 130   0.0000       0.184197         5.0123 
 131   0.0000       0.187449         5.1007 
 132   0.0000       0.189014         5.1433 
 133   0.0000       0.193073         5.2538 
 134   0.0000       0.195436         5.3181 
 135   0.0000       0.196879         5.3574 
 136   0.0000       0.199600         5.4314 
 137   0.0000       0.202928         5.5219 
 138   0.0000       0.204293         5.5591 
 139   0.0000       0.204949         5.5770 
 140   0.0000       0.213115         5.7992 
 141   0.0000       0.219871         5.9830 
 142   0.0000       0.221163         6.0182 
 143   0.0000       0.221885         6.0378 
 144   0.0000       0.224517         6.1094 
 145   0.0000       0.225179         6.1274 
 146   0.0000       0.229707         6.2507 
 147   0.0000       0.229849         6.2545 
 148   0.0000       0.236182         6.4268 
 149   0.0000       0.237870         6.4728 
 150   0.0000       0.239452         6.5158 
 151   0.0000       0.244536         6.6542 
 152   0.0000       0.244589         6.6556 
 153   0.0000       0.247074         6.7232 
 154   0.0000       0.251977         6.8566 
 155   0.0000       0.256981         6.9928 
 156   0.0000       0.258446         7.0327 
 157   0.0000       0.270217         7.3530 
 158   0.0000       0.271189         7.3794 
 159   0.0000       0.272506         7.4153 
 160   0.0000       0.274276         7.4634 
 161   0.0000       0.277040         7.5387 
 162   0.0000       0.280107         7.6221 
 163   0.0000       0.282550         7.6886 
 164   0.0000       0.288262         7.8440 
 165   0.0000       0.291667         7.9367 
 166   0.0000       0.291735         7.9385 
 167   0.0000       0.300971         8.1898 
 168   0.0000       0.303041         8.2462 
 169   0.0000       0.308545         8.3959 
 170   0.0000       0.311682         8.4813 
 171   0.0000       0.318096         8.6558 
 172   0.0000       0.327138         8.9019 
 173   0.0000       0.333881         9.0854 
 174   0.0000       0.342505         9.3200 
 175   0.0000       0.347566         9.4578 
 176   0.0000       0.354211         9.6386 
 177   0.0000       0.355897         9.6845 
 178   0.0000       0.358541         9.7564 
 179   0.0000       0.363218         9.8837 
 180   0.0000       0.369228        10.0472 
 181   0.0000       0.372843        10.1456 
 182   0.0000       0.377581        10.2745 
 183   0.0000       0.379752        10.3336 
 184   0.0000       0.390764        10.6332 
 185   0.0000       0.404989        11.0203 
 186   0.0000       0.410101        11.1594 
 187   0.0000       0.414148        11.2695 
 188   0.0000       0.419287        11.4094 
 189   0.0000       0.430119        11.7041 
 190   0.0000       0.437053        11.8928 
 191   0.0000       0.442116        12.0306 
 192   0.0000       0.453504        12.3405 
 193   0.0000       0.456980        12.4351 
 194   0.0000       0.481849        13.1118 
 195   0.0000       0.485001        13.1976 
 196   0.0000       0.490596        13.3498 
 197   0.0000       0.497577        13.5398 
 198   0.0000       0.506808        13.7910 
 199   0.0000       0.510564        13.8932 
 200   0.0000       0.511972        13.9315 
 201   0.0000       0.513559        13.9746 
 202   0.0000       0.520362        14.1598 
 203   0.0000       0.527024        14.3410 
 204   0.0000       0.529100        14.3975 
 205   0.0000       0.538596        14.6559 
 206   0.0000       0.543310        14.7842 
 207   0.0000       0.547057        14.8862 
 208   0.0000       0.550649        14.9839 
 209   0.0000       0.557171        15.1614 
 210   0.0000       0.557252        15.1636 
 211   0.0000       0.561543        15.2803 
 212   0.0000       0.563175        15.3248 
 213   0.0000       0.570299        15.5186 
 214   0.0000       0.574557        15.6345 
 215   0.0000       0.579820        15.7777 
 216   0.0000       0.581980        15.8365 
 217   0.0000       0.587403        15.9840 
 218   0.0000       0.592887        16.1333 
 219   0.0000       0.599270        16.3070 
 220   0.0000       0.601928        16.3793 
 221   0.0000       0.608360        16.5543 
 222   0.0000       0.611124        16.6295 
 223   0.0000       0.616043        16.7634 
 224   0.0000       0.617284        16.7971 
 225   0.0000       0.620723        16.8907 
 226   0.0000       0.627736        17.0816 
 227   0.0000       0.633797        17.2465 
 228   0.0000       0.633999        17.2520 
 229   0.0000       0.642826        17.4922 
 230   0.0000       0.644518        17.5382 
 231   0.0000       0.645378        17.5616 
 232   0.0000       0.652240        17.7484 
 233   0.0000       0.658087        17.9075 
 234   0.0000       0.659064        17.9340 
 235   0.0000       0.663679        18.0596 
 236   0.0000       0.669502        18.2181 
 237   0.0000       0.669627        18.2215 
 238   0.0000       0.674709        18.3598 
 239   0.0000       0.684729        18.6324 
 240   0.0000       0.686079        18.6692 
 241   0.0000       0.690230        18.7821 
 242   0.0000       0.692666        18.8484 
 243   0.0000       0.696533        18.9536 
 244   0.0000       0.697162        18.9707 
 245   0.0000       0.708727        19.2855 
 246   0.0000       0.717505        19.5243 
 247   0.0000       0.718163        19.5422 
 248   0.0000       0.725369        19.7383 
 249   0.0000       0.725397        19.7391 
 250   0.0000       0.732962        19.9449 
 251   0.0000       0.733196        19.9513 
 252   0.0000       0.743162        20.2225 
 253   0.0000       0.744549        20.2602 
 254   0.0000       0.752591        20.4790 
 255   0.0000       0.759366        20.6634 
 256   0.0000       0.766293        20.8519 
 257   0.0000       0.770728        20.9726 
 258   0.0000       0.779863        21.2211 
 259   0.0000       0.789887        21.4939 
 260   0.0000       0.795907        21.6577 
 261   0.0000       0.818903        22.2835 
 262   0.0000       0.824911        22.4470 
 263   0.0000       0.865882        23.5618 
 264   0.0000       0.876752        23.8576 
 265   0.0000       0.891480        24.2584 
 266   0.0000       0.900693        24.5091 
 267   0.0000       0.909269        24.7425 
 268   0.0000       0.913460        24.8565 
 269   0.0000       0.915219        24.9044 
 270   0.0000       0.923575        25.1318 
 271   0.0000       0.928340        25.2614 
 272   0.0000       0.929977        25.3060 
 273   0.0000       0.936894        25.4942 
 274   0.0000       0.945450        25.7270 
 275   0.0000       0.946678        25.7604 
 276   0.0000       0.947739        25.7893 
 277   0.0000       0.957540        26.0560 
 278   0.0000       0.959956        26.1217 
 279   0.0000       0.972497        26.4630 
 280   0.0000       0.978222        26.6188 
 281   0.0000       0.978920        26.6378 
 282   0.0000       0.983951        26.7747 
 283   0.0000       0.999984        27.2109 
 284   0.0000       1.006891        27.3989 
 285   0.0000       1.010424        27.4950 
 286   0.0000       1.012371        27.5480 
 287   0.0000       1.018658        27.7191 
 288   0.0000       1.024768        27.8853 
 289   0.0000       1.035601        28.1801 
 290   0.0000       1.048250        28.5243 
 291   0.0000       1.049305        28.5530 
 292   0.0000       1.052694        28.6452 
 293   0.0000       1.053073        28.6556 
 294   0.0000       1.067871        29.0582 
 295   0.0000       1.075153        29.2564 
 296   0.0000       1.093357        29.7518 
 297   0.0000       1.094195        29.7746 
 298   0.0000       1.112273        30.2665 
 299   0.0000       1.112316        30.2677 
 300   0.0000       1.116305        30.3762 
 301   0.0000       1.125126        30.6162 
 302   0.0000       1.125372        30.6229 
 303   0.0000       1.141821        31.0705 
 304   0.0000       1.142743        31.0956 
 305   0.0000       1.148152        31.2428 
 306   0.0000       1.171445        31.8767 
 307   0.0000       1.179564        32.0976 
 308   0.0000       1.184779        32.2395 
 309   0.0000       1.187749        32.3203 
 310   0.0000       1.211656        32.9708 
 311   0.0000       1.214270        33.0420 
 312   0.0000       1.218797        33.1652 
 313   0.0000       1.225745        33.3542 
 314   0.0000       1.227603        33.4048 
 315   0.0000       1.232186        33.5295 
 316   0.0000       1.241097        33.7720 
 317   0.0000       1.245542        33.8929 
 318   0.0000       1.251711        34.0608 
 319   0.0000       1.266800        34.4714 
 320   0.0000       1.290745        35.1230 
 321   0.0000       1.314500        35.7694 
 322   0.0000       1.324164        36.0323 
 323   0.0000       1.350333        36.7444 
 324   0.0000       1.358957        36.9791 
 325   0.0000       1.390067        37.8256 
 326   0.0000       1.426523        38.8177 
 327   0.0000       1.443894        39.2904 
 328   0.0000       1.446459        39.3602 
 329   0.0000       1.462307        39.7914 
 330   0.0000       1.470828        40.0233 
 331   0.0000       1.477149        40.1953 
 332   0.0000       1.496946        40.7340 
 333   0.0000       1.502509        40.8854 
 334   0.0000       1.517143        41.2836 
 335   0.0000       1.531347        41.6701 
 336   0.0000       1.536532        41.8111 
 337   0.0000       1.551102        42.2076 
 338   0.0000       1.561785        42.4983 
 339   0.0000       1.562469        42.5170 
 340   0.0000       1.583627        43.0927 
 341   0.0000       1.597581        43.4724 
 342   0.0000       1.603294        43.6279 
 343   0.0000       1.622823        44.1593 
 344   0.0000       1.626401        44.2566 
 345   0.0000       1.637256        44.5520 
 346   0.0000       1.640078        44.6288 
 347   0.0000       1.666061        45.3358 
 348   0.0000       1.683218        45.8027 
 349   0.0000       1.690640        46.0046 
 350   0.0000       1.690692        46.0061 
 351   0.0000       1.714315        46.6489 
 352   0.0000       1.720412        46.8148 
 353   0.0000       1.722884        46.8820 
 354   0.0000       1.730014        47.0761 
 355   0.0000       1.741954        47.4010 
 356   0.0000       1.775662        48.3182 
 357   0.0000       1.778093        48.3844 
 358   0.0000       1.789956        48.7072 
 359   0.0000       1.791122        48.7389 
 360   0.0000       1.806722        49.1634 
 361   0.0000       1.823154        49.6105 
 362   0.0000       1.835027        49.9336 
 363   0.0000       1.846220        50.2382 
 364   0.0000       1.846985        50.2590 
 365   0.0000       1.862414        50.6789 
 366   0.0000       1.862943        50.6933 
 367   0.0000       1.868195        50.8362 
 368   0.0000       1.881819        51.2069 
 369   0.0000       1.895755        51.5861 
 370   0.0000       1.915834        52.1325 
 371   0.0000       1.939789        52.7843 
 372   0.0000       1.942395        52.8553 
 373   0.0000       1.948267        53.0150 
 374   0.0000       1.959852        53.3303 
 375   0.0000       1.979855        53.8746 
 376   0.0000       1.980006        53.8787 
 377   0.0000       1.984328        53.9963 
 378   0.0000       1.999755        54.4161 
 379   0.0000       2.004406        54.5427 
 380   0.0000       2.017802        54.9072 
 381   0.0000       2.025136        55.1067 
 382   0.0000       2.029009        55.2122 
 383   0.0000       2.040320        55.5199 
 384   0.0000       2.041798        55.5602 
 385   0.0000       2.063708        56.1563 
 386   0.0000       2.065804        56.2134 
 387   0.0000       2.072245        56.3887 
 388   0.0000       2.088247        56.8241 
 389   0.0000       2.096907        57.0597 
 390   0.0000       2.118312        57.6422 
 391   0.0000       2.149199        58.4827 
 392   0.0000       2.156058        58.6693 
 393   0.0000       2.170574        59.0643 
 394   0.0000       2.190999        59.6201 
 395   0.0000       2.205287        60.0089 
 396   0.0000       2.239190        60.9315 
 397   0.0000       2.265531        61.6482 
 398   0.0000       2.273238        61.8580 
 399   0.0000       2.273501        61.8651 
 400   0.0000       2.290308        62.3225 
 401   0.0000       2.318718        63.0955 
 402   0.0000       2.326454        63.3060 
 403   0.0000       2.353494        64.0418 
 404   0.0000       2.365190        64.3601 
 405   0.0000       2.372986        64.5722 
 406   0.0000       2.400533        65.3218 
 407   0.0000       2.423720        65.9528 
 408   0.0000       2.434924        66.2577 
 409   0.0000       2.445180        66.5367 
 410   0.0000       2.449498        66.6542 
 411   0.0000       2.465338        67.0852 
 412   0.0000       2.509622        68.2903 
 413   0.0000       2.513818        68.4045 
 414   0.0000       2.534543        68.9684 
 415   0.0000       2.562516        69.7296 
 416   0.0000       2.570553        69.9483 
 417   0.0000       2.574586        70.0581 
 418   0.0000       2.594537        70.6009 
 419   0.0000       2.623710        71.3948 
 420   0.0000       2.630277        71.5735 
 421   0.0000       2.632682        71.6389 
 422   0.0000       2.640447        71.8502 
 423   0.0000       2.653072        72.1938 
 424   0.0000       2.672577        72.7245 
 425   0.0000       2.687045        73.1182 
 426   0.0000       2.697774        73.4102 
 427   0.0000       2.703827        73.5749 
 428   0.0000       2.716257        73.9131 
 429   0.0000       2.722555        74.0845 
 430   0.0000       2.750487        74.8445 
 431   0.0000       2.751611        74.8752 
 432   0.0000       2.760399        75.1143 
 433   0.0000       2.788313        75.8738 
 434   0.0000       2.789855        75.9158 
 435   0.0000       2.807944        76.4080 
 436   0.0000       2.829901        77.0055 
 437   0.0000       2.849606        77.5417 
 438   0.0000       2.866774        78.0089 
 439   0.0000       2.871681        78.1424 
 440   0.0000       2.877053        78.2886 
 441   0.0000       2.894640        78.7672 
 442   0.0000       2.898828        78.8811 
 443   0.0000       2.907630        79.1206 
 444   0.0000       2.924058        79.5677 
 445   0.0000       2.938703        79.9662 
 446   0.0000       2.941099        80.0314 
 447   0.0000       2.943767        80.1040 
 448   0.0000       2.953228        80.3614 
 449   0.0000       2.962754        80.6206 
 450   0.0000       2.979841        81.0856 
 451   0.0000       2.982469        81.1571 
 452   0.0000       2.985470        81.2388 
 453   0.0000       2.992622        81.4334 
 454   0.0000       2.992668        81.4346 
 455   0.0000       3.005110        81.7732 
 456   0.0000       3.028641        82.4135 
 457   0.0000       3.045721        82.8783 
 458   0.0000       3.053891        83.1006 
 459   0.0000       3.071425        83.5777 
 460   0.0000       3.078504        83.7704 
 461   0.0000       3.087521        84.0157 
 462   0.0000       3.126240        85.0693 
 463   0.0000       3.136412        85.3461 
 464   0.0000       3.181424        86.5709 
 465   0.0000       3.186393        86.7062 
 466   0.0000       3.237036        88.0842 
 467   0.0000       3.250547        88.4519 
 468   0.0000       3.265013        88.8455 
 469   0.0000       3.278978        89.2255 
 470   0.0000       3.292051        89.5813 
 471   0.0000       3.316644        90.2505 
 472   0.0000       3.355269        91.3015 
 473   0.0000       3.369050        91.6765 
 474   0.0000       3.375926        91.8636 
 475   0.0000       3.389465        92.2320 
 476   0.0000       3.399921        92.5165 
 477   0.0000       3.415019        92.9274 
 478   0.0000       3.449799        93.8738 
 479   0.0000       3.456850        94.0657 
 480   0.0000       3.478170        94.6458 
 481   0.0000       3.537302        96.2549 
 482   0.0000       3.544968        96.4635 
 483   0.0000       3.550614        96.6171 
 484   0.0000       3.560741        96.8927 
 485   0.0000       3.597665        97.8975 
 486   0.0000       3.645570        99.2010 
 487   0.0000       3.655124        99.4610 
 488   0.0000       3.733632       101.5973 
 489   0.0000       3.761873       102.3658 
 490   0.0000       3.774593       102.7119 
 491   0.0000       3.786288       103.0301 
 492   0.0000       3.948283       107.4382 
 493   0.0000       4.000718       108.8651 
 494   0.0000       4.033676       109.7619 
 495   0.0000       4.105351       111.7123 
 496   0.0000       4.180301       113.7518 
 497   0.0000       4.322877       117.6315 
 498   0.0000       4.434434       120.6671 
 499   0.0000       4.546473       123.7158 
 500   0.0000       4.674831       127.2086 
 501   0.0000       4.695519       127.7716 
 502   0.0000       4.717160       128.3604 
 503   0.0000       4.749350       129.2364 
 504   0.0000       4.806817       130.8002 
 505   0.0000       4.838454       131.6610 
 506   0.0000      23.160471       630.2285 
 507   0.0000      23.407848       636.9599 
 508   0.0000      23.478814       638.8910 
 509   0.0000      23.590845       641.9395 
 510   0.0000      23.630747       643.0253 
 511   0.0000      23.644078       643.3881 
 512   0.0000      23.760712       646.5618 
 513   0.0000      23.794637       647.4850 
 514   0.0000      23.881305       649.8433 
 515   0.0000      23.953427       651.8059 
 516   0.0000      23.985203       652.6705 
 517   0.0000      23.999763       653.0667 
 518   0.0000      24.004662       653.2000 
 519   0.0000      24.019019       653.5907 
 520   0.0000      24.027679       653.8264 
 521   0.0000      24.035024       654.0262 
 522   0.0000      24.043092       654.2458 
 523   0.0000      24.065232       654.8483 
 524   0.0000      24.179672       657.9623 
 525   0.0000      24.519981       667.2226 
 526   0.0000      24.579089       668.8310 
 527   0.0000      24.609149       669.6490 
 528   0.0000      24.631095       670.2462 
 529   0.0000      24.746890       673.3971 
 530   0.0000       0.000000         0.0000 
 531   0.0000       0.000000         0.0000 
 532   0.0000       0.000000         0.0000 
 533   0.0000       0.000000         0.0000 
 534   0.0000       0.000000         0.0000 
 535   0.0000       0.000000         0.0000 
 536   0.0000       0.000000         0.0000 
 537   0.0000       0.000000         0.0000 
 538   0.0000       0.000000         0.0000 
 539   0.0000       0.000000         0.0000 

                 SPIN DOWN ORBITALS
  NO   OCC          E(Eh)            E(eV) 
   0   1.0000     -10.269429      -279.4454 
   1   1.0000     -10.263857      -279.2938 
   2   1.0000     -10.263414      -279.2817 
   3   1.0000     -10.254442      -279.0376 
   4   1.0000     -10.252305      -278.9794 
   5   1.0000     -10.252255      -278.9781 
   6   1.0000     -10.247815      -278.8572 
   7   1.0000     -10.236404      -278.5467 
   8   1.0000     -10.231614      -278.4164 
   9   1.0000     -10.227253      -278.2977 
  10   1.0000     -10.219779      -278.0943 
  11   1.0000     -10.219407      -278.0842 
  12   1.0000     -10.219281      -278.0808 
  13   1.0000     -10.219064      -278.0749 
  14   1.0000     -10.218012      -278.0463 
  15   1.0000     -10.217123      -278.0221 
  16   1.0000     -10.216256      -277.9985 
  17   1.0000     -10.215090      -277.9667 
  18   1.0000     -10.214083      -277.9393 
  19   1.0000     -10.214022      -277.9377 
  20   1.0000     -10.212140      -277.8865 
  21   1.0000     -10.208199      -277.7792 
  22   1.0000     -10.207738      -277.7667 
  23   1.0000     -10.205713      -277.7116 
  24   1.0000      -0.955608       -26.0034 
  25   1.0000      -0.925692       -25.1894 
  26   1.0000      -0.907238       -24.6872 
  27   1.0000      -0.881691       -23.9920 
  28   1.0000      -0.855676       -23.2841 
  29   1.0000      -0.852208       -23.1898 
  30   1.0000      -0.824361       -22.4320 
  31   1.0000      -0.801545       -21.8112 
  32   1.0000      -0.782691       -21.2981 
  33   1.0000      -0.763711       -20.7816 
  34   1.0000      -0.751657       -20.4536 
  35   1.0000      -0.735197       -20.0057 
  36   1.0000      -0.686474       -18.6799 
  37   1.0000      -0.682906       -18.5828 
  38   1.0000      -0.666547       -18.1377 
  39   1.0000      -0.641641       -17.4599 
  40   1.0000      -0.596153       -16.2221 
  41   1.0000      -0.593133       -16.1400 
  42   1.0000      -0.581219       -15.8158 
  43   1.0000      -0.573437       -15.6040 
  44   1.0000      -0.550714       -14.9857 
  45   1.0000      -0.537869       -14.6362 
  46   1.0000      -0.528146       -14.3716 
  47   1.0000      -0.523538       -14.2462 
  48   1.0000      -0.504196       -13.7199 
  49   1.0000      -0.486193       -13.2300 
  50   1.0000      -0.469815       -12.7843 
  51   1.0000      -0.469623       -12.7791 
  52   1.0000      -0.456028       -12.4092 
  53   1.0000      -0.437206       -11.8970 
  54   1.0000      -0.434518       -11.8238 
  55   1.0000      -0.431759       -11.7487 
  56   1.0000      -0.422840       -11.5061 
  57   1.0000      -0.407659       -11.0930 
  58   1.0000      -0.389764       -10.6060 
  59   1.0000      -0.387898       -10.5552 
  60   1.0000      -0.370162       -10.0726 
  61   1.0000      -0.364650        -9.9226 
  62   1.0000      -0.320786        -8.7290 
  63   1.0000      -0.311860        -8.4861 
  64   1.0000      -0.310142        -8.4394 
  65   1.0000      -0.308717        -8.4006 
  66   1.0000      -0.305945        -8.3252 
  67   1.0000      -0.298539        -8.1236 
  68   1.0000      -0.295395        -8.0381 
  69   1.0000      -0.293319        -7.9816 
  70   1.0000      -0.266350        -7.2478 
  71   1.0000      -0.257537        -7.0079 
  72   1.0000      -0.219001        -5.9593 
  73   0.0000      -0.130393        -3.5482 
  74   0.0000      -0.124704        -3.3934 
  75   0.0000      -0.117286        -3.1915 
  76   0.0000      -0.107435        -2.9234 
  77   0.0000      -0.096764        -2.6331 
  78   0.0000      -0.092711        -2.5228 
  79   0.0000      -0.086913        -2.3650 
  80   0.0000      -0.072965        -1.9855 
  81   0.0000      -0.043851        -1.1933 
  82   0.0000       0.000544         0.0148 
  83   0.0000       0.011985         0.3261 
  84   0.0000       0.012551         0.3415 
  85   0.0000       0.019490         0.5304 
  86   0.0000       0.024920         0.6781 
[...]
 761   70533.5    141.8     -0.00039  -0.00001  -0.00014   0.15525
 762   70582.0    141.7     -0.00049  -0.08078   0.02118  -0.00004
 763   70582.7    141.7      0.00086  -0.00009   0.00000   0.01754
 764   70632.2    141.6      0.00084   0.00000  -0.00026   0.27998
 765   70680.3    141.5      0.00059   0.00001   0.00012  -0.10594
 766   70757.1    141.3     -0.00119  -0.10813   0.00711  -0.00008
 767   70780.8    141.3     -0.00330   0.00001  -0.00028   0.30170
 768   70812.6    141.2     -0.01156  -0.08280  -0.07240  -0.00027
 769   70818.4    141.2     -0.00640   0.03890   0.01584   0.00022
 770   70819.7    141.2      0.02184   0.00028   0.00031  -0.09907
 771   70828.7    141.2      0.00035  -0.03621   0.02499   0.00011
 772   70843.5    141.2     -0.00029   0.06532  -0.04964   0.00001
 773   70852.2    141.1      0.00110   0.00011   0.00001  -0.03631
 774   70913.2    141.0     -0.00028   0.00723  -0.00412   0.00002
 775   70927.6    141.0     -0.00045  -0.00002  -0.00013   0.12323
 776   70984.4    140.9      0.00051  -0.00004  -0.00023   0.24160
 777   70996.9    140.9     -0.00240   0.11854  -0.03554   0.00003
 778   71057.8    140.7     -0.00628   0.01852  -0.05409   0.00008
 779   71058.2    140.7     -0.00041  -0.07804  -0.02236  -0.00007
 780   71070.1    140.7      0.00959   0.00002   0.00007  -0.12908
 781   71097.0    140.7     -0.00107   0.00792  -0.02240   0.00001
 782   71165.8    140.5      0.00048   0.02600   0.01975   0.00002
 783   71172.1    140.5      0.00086   0.04783   0.14837   0.00021
 784   71182.7    140.5      0.00026   0.01924   0.01263  -0.00002
 785   71222.0    140.4     -0.00269   0.00003   0.00006  -0.06423
 786   71226.4    140.4      0.00114   0.02040  -0.05283  -0.00003
 787   71265.5    140.3     -0.00289  -0.07956  -0.02386   0.00009
 788   71274.0    140.3     -0.00072  -0.01670   0.01876   0.00008
 789   71280.9    140.3      0.00527   0.00006  -0.00013   0.15766
 790   71301.5    140.2      0.00104  -0.00166   0.04725   0.00014
 791   71310.5    140.2     -0.00838   0.00009  -0.00003   0.08932
 792   71314.9    140.2      0.00597   0.05279   0.03293  -0.00007
 793   71357.2    140.1      0.00199  -0.00005  -0.00053   0.45809
 794   71378.4    140.1      0.00175  -0.00004  -0.00014   0.08502
 795   71417.8    140.0     -0.00669  -0.16797  -0.17863  -0.00027
 796   71439.1    140.0      0.00048   0.00005   0.00004   0.01750
 797   71462.1    139.9      0.00183   0.00005   0.00004  -0.00372
 798   71576.2    139.7      0.00040  -0.03379   0.00480   0.00001
 799   71614.2    139.6     -0.00005  -0.00000   0.00003  -0.03240
 800   71691.8    139.5     -0.00105   0.00002   0.00011  -0.10091
 801   71704.9    139.5     -0.00135  -0.00002  -0.00021   0.20672
 802   71781.0    139.3     -0.00191   0.12525   0.06513   0.00003
 803   71795.8    139.3      0.00238   0.00002  -0.00005   0.07090
 804   71810.2    139.3      0.00027  -0.00001   0.00002  -0.02742
 805   71856.4    139.2     -0.00064   0.00537  -0.00277   0.00018
 806   71860.3    139.2      0.00352  -0.00000   0.00003  -0.06262
 807   71908.1    139.1      0.00076  -0.05176  -0.05004  -0.00008
 808   71942.5    139.0     -0.00287  -0.02183   0.06459  -0.00002
 809   71948.8    139.0      0.00354  -0.00004   0.00008   0.03724
 810   71972.5    138.9      0.00022   0.00006   0.00003  -0.01689
 811   71975.1    138.9     -0.00361   0.04427  -0.00801   0.00002
 812   72012.9    138.9      0.00077   0.00000  -0.00003   0.04588
 813   72047.7    138.8      0.00009   0.06180   0.03635  -0.00000
 814   72087.6    138.7     -0.00019  -0.00001  -0.00003   0.02547
 815   72096.3    138.7      0.00200  -0.00001  -0.00008   0.04539
 816   72145.9    138.6      0.00303  -0.00002   0.00007  -0.00215
 817   72160.6    138.6     -0.01148  -0.09228   0.13819   0.00013
 818   72171.9    138.6      0.00269  -0.00005   0.00001   0.00360
 819   72187.5    138.5     -0.11390  -0.00101  -0.00128   0.04267
 820   72188.0    138.5      0.11728   0.09610   0.10847   0.00054
 821   72209.9    138.5     -0.00455   0.07276  -0.00932   0.00001
 822   72234.8    138.4      0.00208   0.00001   0.00003  -0.05343
 823   72246.4    138.4     -0.00067  -0.00504  -0.07771  -0.00006
 824   72308.1    138.3      0.00040  -0.00828   0.04706   0.00008
 825   72315.4    138.3      0.00039   0.00001  -0.00009   0.07551
 826   72371.5    138.2      0.00034  -0.04795  -0.02180   0.00006
 827   72381.4    138.2     -0.00104   0.01882   0.02757   0.00008
 828   72405.8    138.1      0.00040  -0.00001  -0.00006   0.09977
 829   72419.3    138.1      0.00020  -0.12186   0.04315  -0.00005
 830   72449.6    138.0     -0.00097  -0.00004  -0.00006   0.06871
 831   72461.8    138.0      0.00170   0.03631   0.08699   0.00009
 832   72482.3    138.0     -0.00253  -0.00005  -0.00011   0.05651
 833   72486.7    138.0      0.00216  -0.10721   0.03098   0.00002
 834   72504.0    137.9     -0.00218  -0.00004   0.00011  -0.11637
 835   72539.9    137.9      0.00024  -0.02194  -0.00600  -0.00003
 836   72552.6    137.8      0.00092  -0.00003  -0.00009   0.05126
 837   72583.8    137.8      0.00025   0.01961  -0.03232  -0.00005
 838   72625.8    137.7     -0.00043   0.16619   0.03342   0.00060
 839   72627.6    137.7     -0.00057   0.00032   0.00034  -0.29056
 840   72681.0    137.6     -0.00286   0.05925  -0.07478  -0.00017
 841   72713.6    137.5      0.00022  -0.01984  -0.02344   0.00013
 842   72719.7    137.5      0.00096   0.00007   0.00001   0.06590
 843   72733.0    137.5      0.00063  -0.00000  -0.00026   0.22977
 844   72787.9    137.4     -0.00005  -0.00002  -0.00017   0.16792
 845   72816.9    137.3      0.00012   0.00003   0.00001   0.02198
 846   72857.6    137.3      0.00008  -0.00002  -0.00003   0.02002
 847   72890.5    137.2      0.00057  -0.08582  -0.05107  -0.00002
 848   72963.5    137.1     -0.00066  -0.00000  -0.00013   0.13427
 849   72985.7    137.0      0.00064  -0.05970  -0.07229  -0.00005
 850   73012.0    137.0     -0.00997  -0.11956  -0.08527  -0.00027
 851   73015.9    137.0      0.00730   0.00023   0.00027  -0.09162
 852   73066.8    136.9      0.00019  -0.06315  -0.01839  -0.00003
 853   73111.2    136.8      0.00061  -0.05728   0.12694   0.00014
 854   73178.0    136.7      0.00105  -0.00001   0.00002  -0.05021
 855   73188.5    136.6     -0.00206   0.02129  -0.01617  -0.00011
 856   73209.0    136.6     -0.00017  -0.00003  -0.00003   0.04571
 857   73241.5    136.5      0.00009  -0.00000  -0.00001   0.01628
 858   73250.1    136.5      0.00043   0.03870  -0.02462   0.00001
 859   73290.4    136.4      0.00184   0.10006  -0.05025   0.00002
 860   73299.6    136.4     -0.00249   0.00005   0.00011  -0.15434
 861   73356.3    136.3      0.00007  -0.00001   0.00014  -0.13797
 862   73390.3    136.3     -0.00013  -0.00002  -0.00008   0.08257
 863   73405.1    136.2      0.00112   0.10004   0.03654   0.00008
 864   73435.0    136.2     -0.00217   0.05754  -0.08272  -0.00015
 865   73459.2    136.1      0.00316   0.00003  -0.00022   0.20350
 866   73481.3    136.1     -0.00082  -0.00003  -0.00016   0.13954
 867   73496.0    136.1      0.00014  -0.00220   0.04575   0.00006
 868   73530.8    136.0      0.00098   0.00002  -0.00014   0.11049
 869   73541.6    136.0     -0.00109   0.06455  -0.01780  -0.00001
 870   73556.0    136.0     -0.00067   0.00004   0.00012  -0.11745
 871   73565.1    135.9     -0.00631  -0.07499   0.01431   0.00020
 872   73586.4    135.9      0.00135   0.00006  -0.00014   0.12355
 873   73610.5    135.9      0.00164   0.00002  -0.00015   0.14855
 874   73631.6    135.8      0.00243   0.00003  -0.00004   0.08341
 875   73657.3    135.8     -0.00054   0.00000   0.00006  -0.04384
 876   73681.5    135.7     -0.00204  -0.00579   0.13155   0.00005
 877   73730.4    135.6      0.00064   0.04199  -0.06583  -0.00013
 878   73775.8    135.5     -0.00159   0.07351  -0.05237  -0.00006
 879   73801.9    135.5      0.00817  -0.00000  -0.00024   0.17147
 880   73805.9    135.5     -0.00109  -0.04771  -0.03185  -0.00014
 881   73842.9    135.4     -0.00463  -0.00011  -0.00006   0.03297
 882   73855.9    135.4      0.00462  -0.12965   0.00933  -0.00008
 883   73888.0    135.3      0.00009   0.03876  -0.02698   0.00002
 884   73945.8    135.2     -0.00835   0.00004   0.00079  -0.06804
 885   73947.3    135.2     -0.00016  -0.00325  -0.13356  -0.00068
 886   73959.3    135.2      0.02474  -0.00017  -0.00028   0.12246
 887   73962.5    135.2     -0.01725  -0.08419  -0.00291  -0.00025
 888   74014.2    135.1     -0.00064   0.00004  -0.00003   0.01990
 889   74088.6    135.0      0.00110  -0.00000   0.00011  -0.10788
 890   74108.7    134.9      0.00232  -0.00000   0.00016  -0.11304
 891   74161.6    134.8      0.00455   0.00013   0.00025   0.12097
 892   74164.4    134.8     -0.00484   0.07522   0.13447  -0.00012
 893   74211.3    134.8     -0.00449  -0.00012  -0.00020   0.28661
 894   74234.6    134.7      0.02591  -0.13741   0.20904   0.00003
 895   74248.8    134.7     -0.01075   0.00003  -0.00007  -0.02538
 896   74276.6    134.6      0.01006  -0.00015   0.00048  -0.32167
 897   74289.7    134.6     -0.00837  -0.13124   0.04008   0.00010
 898   74303.8    134.6     -0.00853   0.00008   0.00019  -0.24680
 899   74343.4    134.5     -0.00109  -0.12018  -0.00383  -0.00004
 900   74350.0    134.5     -0.00020  -0.00001   0.00006  -0.02761
 901   74380.7    134.4     -0.02136   0.15073   0.04110   0.00037
 902   74386.2    134.4      0.02536   0.00029   0.00027  -0.20903
 903   74423.1    134.4      0.00236   0.11095   0.04354   0.00001
 904   74479.9    134.3      0.00146  -0.00020   0.00005   0.05101
 905   74496.2    134.2     -0.00452   0.30540  -0.18637  -0.00015
 906   74534.6    134.2     -0.00001  -0.01517  -0.03930  -0.00009
 907   74548.2    134.1     -0.01311   0.00014   0.00019  -0.10814
 908   74550.3    134.1     -0.00264  -0.15388   0.15780   0.00018
 909   74558.0    134.1      0.00601  -0.10097  -0.05476  -0.00015
 910   74560.8    134.1      0.00509   0.00022   0.00016  -0.00098
 911   74598.3    134.1      0.00318  -0.16090  -0.10208  -0.00014
 912   74628.5    134.0     -0.00149  -0.00002  -0.00010   0.03949
 913   74641.2    134.0      0.00097  -0.00003   0.00008   0.00236
 914   74666.5    133.9     -0.00997  -0.09027   0.41347   0.00048
 915   74739.7    133.8     -0.00034   0.00005   0.00029  -0.11790
 916   74742.7    133.8      0.00142  -0.02667  -0.05518  -0.00002
 917   74757.2    133.8     -0.00421   0.00016  -0.00065  -0.14673
 918   74758.9    133.8     -0.00696   0.03810  -0.16752   0.00026
 919   74763.2    133.8      0.00388  -0.00004   0.00030  -0.14445
 920   74787.8    133.7      0.00234  -0.09956  -0.03138  -0.00008
 921   74825.9    133.6      0.00090  -0.00003   0.00004  -0.03603
 922   74851.5    133.6      0.00233  -0.06237  -0.06711   0.00000
 923   74935.8    133.4     -0.00136  -0.01494   0.17026   0.00004
 924   74946.4    133.4      0.00316   0.00000  -0.00012  -0.10814
 925   74950.2    133.4      0.00302  -0.00004   0.00040  -0.34359
 926   74986.2    133.4     -0.00127   0.06429   0.15559   0.00011
 927   75001.9    133.3      0.00041   0.06365  -0.12472  -0.00026
 928   75047.7    133.2      0.00055   0.00001   0.00002  -0.01413
 929   75103.9    133.1      0.00104   0.09267   0.20195   0.00006
 930   75112.3    133.1     -0.00887  -0.00020   0.00051  -0.36931
 931   75115.8    133.1      0.00768  -0.05597   0.09058   0.00116
 932   75135.9    133.1      0.00071  -0.04262  -0.02276  -0.00012
 933   75165.7    133.0      0.00065  -0.00001   0.00008  -0.02983
 934   75200.7    133.0     -0.00057  -0.01194  -0.14750  -0.00021
 935   75208.5    133.0     -0.00031   0.02489   0.09680   0.00011
 936   75264.0    132.9      0.00001   0.00556   0.01803   0.00005
 937   75323.5    132.8      0.00016   0.00001   0.00021  -0.17292
 938   75330.2    132.7      0.00010   0.00000  -0.00009   0.10516
 939   75382.0    132.7      0.00127  -0.18530  -0.07432  -0.00013
 940   75401.9    132.6      0.00217   0.00839  -0.02911  -0.00014
 941   75404.4    132.6     -0.00718  -0.00002  -0.00026   0.17858
 942   75468.9    132.5      0.00041  -0.00002  -0.00018   0.18974
 943   75488.6    132.5     -0.00124  -0.00000  -0.00016   0.10613
 944   75533.4    132.4     -0.00431   0.00020  -0.00051  -0.02090
 945   75538.3    132.4      0.00202   0.04715  -0.16389  -0.00010
 946   75550.8    132.4      0.00078   0.00006  -0.00001  -0.02388
 947   75568.1    132.3      0.00341   0.02802   0.05976   0.00012
 948   75632.0    132.2      0.01550   0.07466   0.07211   0.00015
 949   75647.4    132.2     -0.01533  -0.00014  -0.00012   0.01580
 950   75676.4    132.1     -0.00205   0.11081   0.08895   0.00031
 951   75694.6    132.1      0.00308  -0.00005  -0.00015   0.10842
 952   75700.9    132.1     -0.00313  -0.00009  -0.00027   0.16922
 953   75775.0    132.0     -0.00825   0.07082  -0.01488   0.00011
 954   75776.9    132.0      0.01868  -0.00010  -0.00013   0.01836
 955   75784.3    132.0     -0.01197   0.13495  -0.09590  -0.00010
 956   75809.4    131.9      0.00169   0.09283  -0.07295  -0.00006
 957   75833.3    131.9     -0.00138   0.00001   0.00040  -0.38408
 958   75895.7    131.8      0.00189  -0.00005  -0.00003   0.03053
 959   75909.7    131.7     -0.00109  -0.00004  -0.00009   0.06474
 960   75923.2    131.7      0.00049   0.00068   0.01038   0.00008
 961   75977.6    131.6     -0.00007   0.05381   0.08877   0.00007
 962   76002.7    131.6     -0.00041  -0.00000  -0.00002   0.04277
 963   76027.3    131.5      0.00141  -0.04091  -0.09652  -0.00017
 964   76095.5    131.4      0.00025   0.02177   0.02559  -0.00001
 965   76118.3    131.4     -0.00093   0.13087   0.09650   0.00016
 966   76134.5    131.3     -0.00012  -0.05522  -0.04788  -0.00004
 967   76146.3    131.3     -0.00370   0.00006   0.00012  -0.14498
 968   76260.4    131.1     -0.00058  -0.03795  -0.00629   0.00001
 969   76272.2    131.1      0.00117   0.00001  -0.00020   0.20005
 970   76323.6    131.0     -0.00185  -0.00002  -0.00038   0.32657
 971   76343.2    131.0     -0.00087   0.01932   0.05058   0.00018
 972   76381.6    130.9      0.00127   0.16880   0.04805   0.00008
 973   76398.0    130.9     -0.00031   0.00002  -0.00002  -0.00320
 974   76401.7    130.9      0.00113   0.05148  -0.04789  -0.00009
 975   76424.3    130.8     -0.01775   0.00038   0.00046  -0.07029
 976   76432.3    130.8      0.01705   0.19631   0.20116   0.00027
 977   76449.3    130.8     -0.00012   0.12820   0.14741   0.00012
 978   76485.4    130.7      0.00649  -0.00010  -0.00001  -0.11851
 979   76529.1    130.7      0.00074  -0.02598   0.05490   0.00011
 980   76540.6    130.6     -0.00076   0.03870   0.03839   0.00003
 981   76573.4    130.6     -0.00238  -0.00002   0.00011  -0.11913
 982   76588.0    130.6      0.00065   0.00006  -0.00034   0.36755
 983   76595.4    130.6     -0.00213  -0.03638  -0.01167  -0.00035
 984   76608.1    130.5      0.00504  -0.11029  -0.00549   0.00029
 985   76671.0    130.4     -0.00205   0.08364  -0.07946   0.00011
 986   76681.5    130.4     -0.00075   0.00008   0.00003  -0.12739
 987   76693.8    130.4     -0.00223  -0.00003  -0.00023   0.26661
 988   76735.9    130.3      0.00007   0.02508  -0.02706   0.00016
 989   76770.7    130.3      0.00174   0.00000  -0.00015   0.13369
 990   76786.9    130.2     -0.00001   0.00824   0.02620  -0.00007
 991   76794.7    130.2     -0.00066  -0.00000   0.00013  -0.12732
 992   76854.1    130.1      0.02404  -0.00004  -0.00082   0.75021
 993   76875.0    130.1     -0.00045  -0.07622  -0.06568  -0.00009
 994   76884.6    130.1     -0.02159  -0.00470   0.09389   0.00053
 995   76903.0    130.0     -0.00090  -0.03885  -0.17100  -0.00014
 996   76918.0    130.0     -0.00008  -0.00001  -0.00008   0.04549
 997   76937.7    130.0      0.00539  -0.06618  -0.02546   0.00039
 998   76952.9    129.9     -0.00120  -0.00010   0.00028  -0.32816
 999   77028.0    129.8     -0.00369   0.02776  -0.00772  -0.00108
 1000   77031.6    129.8      0.00702   0.00004   0.00003  -0.22561

Total run time:    29313.494 sec

           *** ORCA-CIS/TD-DFT FINISHED WITHOUT ERROR ***

Maximum memory used throughout the entire CIS-calculation: 3903.4 MB

-----------------------
CIS/TD-DFT TOTAL ENERGY
-----------------------

    E(SCF)  =   -914.775008995 Eh
    DE(CIS) =      0.046721882 Eh (Root  1)
    ----------------------------- ---------
    E(tot)  =   -914.728287113 Eh



-------------------------------------------------------------------------------
                          DFT DISPERSION CORRECTION                            
                                                                               
                                 DFTD4 V2.5                                    
-------------------------------------------------------------------------------
The B3LYP functional is recognized
Active option DFTDOPT                   ...         5   

Starting D4
-------------------------   ----------------
Dispersion correction           -0.089981440
-------------------------   ----------------


-------------------------   --------------------
FINAL SINGLE POINT ENERGY      -914.818268552871
-------------------------   --------------------


                            ***************************************
                            *     ORCA property calculations      *
                            ***************************************

                                    ---------------------
                                    Active property flags
                                    ---------------------
   (+) Dipole Moment


------------------------------------------------------------------------------
                       ORCA ELECTRIC PROPERTIES CALCULATION
------------------------------------------------------------------------------

Dipole Moment Calculation                       ... on
Quadrupole Moment Calculation                   ... off
Polarizability Calculation                      ... off
GBWName                                         ... Stone-Wales_defect_loss_ten.gbw
Electron density                                ... Stone-Wales_defect_loss_ten.scfp
The origin for moment calculation is the CENTER OF MASS  = ( 0.054416,  0.017832  0.014112)

-------------
DIPOLE MOMENT
-------------
                                X             Y             Z
Electronic contribution:     -7.44504       0.24810       0.00016
Nuclear contribution   :      8.24692      -0.19037      -0.00009
                        -----------------------------------------
Total Dipole Moment    :      0.80188       0.05772       0.00007
                        -----------------------------------------
Magnitude (a.u.)       :      0.80396
Magnitude (Debye)      :      2.04350



--------------------
Rotational spectrum 
--------------------
 
Rotational constants in cm-1:     0.014386     0.010047     0.005916 
Rotational constants in MHz :   431.272117   301.203769   177.344797 

 Dipole components along the rotational axes: 
x,y,z [a.u.] :    -0.423536     0.683348     0.000010 
x,y,z [Debye]:    -1.076543     1.736934     0.000025 

 

Timings for individual modules:

Sum of individual times         ...    31494.771 sec (= 524.913 min)
GTO integral calculation        ...        0.680 sec (=   0.011 min)   0.0 %
SCF iterations                  ...     2180.398 sec (=  36.340 min)   6.9 %
CIS module                      ...    29313.693 sec (= 488.562 min)  93.1 %
                             ****ORCA TERMINATED NORMALLY****
TOTAL RUN TIME: 0 days 8 hours 44 minutes 55 seconds 421 msec
