
                                 *****************
                                 * O   R   C   A *
                                 *****************

                                            #,                                       
                                            ###                                      
                                            ####                                     
                                            #####                                    
                                            ######                                   
                                           ########,                                 
                                     ,,################,,,,,                         
                               ,,#################################,,                 
                          ,,##########################################,,             
                       ,#########################################, ''#####,          
                    ,#############################################,,   '####,        
                  ,##################################################,,,,####,       
                ,###########''''           ''''###############################       
              ,#####''   ,,,,##########,,,,          '''####'''          '####       
            ,##' ,,,,###########################,,,                        '##       
           ' ,,###''''                  '''############,,,                           
         ,,##''                                '''############,,,,        ,,,,,,###''
      ,#''                                            '''#######################'''  
     '                                                          ''''####''''         
             ,#######,   #######,   ,#######,      ##                                
            ,#'     '#,  ##    ##  ,#'     '#,    #''#        ######   ,####,        
            ##       ##  ##   ,#'  ##            #'  '#       #        #'  '#        
            ##       ##  #######   ##           ,######,      #####,   #    #        
            '#,     ,#'  ##    ##  '#,     ,#' ,#      #,         ##   #,  ,#        
             '#######'   ##     ##  '#######'  #'      '#     #####' # '####'        



                  #######################################################
                  #                        -***-                        #
                  #          Department of theory and spectroscopy      #
                  #    Directorship and core code : Frank Neese         #
                  #        Max Planck Institute fuer Kohlenforschung    #
                  #                Kaiser Wilhelm Platz 1               #
                  #                 D-45470 Muelheim/Ruhr               #
                  #                      Germany                        #
                  #                                                     #
                  #                  All rights reserved                #
                  #                        -***-                        #
                  #######################################################



                         Program Version 5.0.4 -  RELEASE  -

 With contributions from (in alphabetic order):
   Daniel Aravena         : Magnetic Suceptibility
   Michael Atanasov       : Ab Initio Ligand Field Theory (pilot matlab implementation)
   Alexander A. Auer      : GIAO ZORA, VPT2 properties, NMR spectrum
   Ute Becker             : Parallelization
   Giovanni Bistoni       : ED, misc. LED, open-shell LED, HFLD
   Martin Brehm           : Molecular dynamics
   Dmytro Bykov           : SCF Hessian
   Vijay G. Chilkuri      : MRCI spin determinant printing, contributions to CSF-ICE
   Dipayan Datta          : RHF DLPNO-CCSD density
   Achintya Kumar Dutta   : EOM-CC, STEOM-CC
   Dmitry Ganyushin       : Spin-Orbit,Spin-Spin,Magnetic field MRCI
   Miquel Garcia          : C-PCM and meta-GGA Hessian, CC/C-PCM, Gaussian charge scheme
   Yang Guo               : DLPNO-NEVPT2, F12-NEVPT2, CIM, IAO-localization
   Andreas Hansen         : Spin unrestricted coupled pair/coupled cluster methods
   Benjamin Helmich-Paris : MC-RPA, TRAH-SCF, COSX integrals
   Lee Huntington         : MR-EOM, pCC
   Robert Izsak           : Overlap fitted RIJCOSX, COSX-SCS-MP3, EOM
   Marcus Kettner         : VPT2
   Christian Kollmar      : KDIIS, OOCD, Brueckner-CCSD(T), CCSD density, CASPT2, CASPT2-K
   Simone Kossmann        : Meta GGA functionals, TD-DFT gradient, OOMP2, MP2 Hessian
   Martin Krupicka        : Initial AUTO-CI
   Lucas Lang             : DCDCAS
   Marvin Lechner         : AUTO-CI (C++ implementation), FIC-MRCC
   Dagmar Lenk            : GEPOL surface, SMD
   Dimitrios Liakos       : Extrapolation schemes; Compound Job, initial MDCI parallelization
   Dimitrios Manganas     : Further ROCIS development; embedding schemes
   Dimitrios Pantazis     : SARC Basis sets
   Anastasios Papadopoulos: AUTO-CI, single reference methods and gradients
   Taras Petrenko         : DFT Hessian,TD-DFT gradient, ASA, ECA, R-Raman, ABS, FL, XAS/XES, NRVS
   Peter Pinski           : DLPNO-MP2, DLPNO-MP2 Gradient
   Christoph Reimann      : Effective Core Potentials
   Marius Retegan         : Local ZFS, SOC
   Christoph Riplinger    : Optimizer, TS searches, QM/MM, DLPNO-CCSD(T), (RO)-DLPNO pert. Triples
   Tobias Risthaus        : Range-separated hybrids, TD-DFT gradient, RPA, STAB
   Michael Roemelt        : Original ROCIS implementation
   Masaaki Saitow         : Open-shell DLPNO-CCSD energy and density
   Barbara Sandhoefer     : DKH picture change effects
   Avijit Sen             : IP-ROCIS
   Kantharuban Sivalingam : CASSCF convergence, NEVPT2, FIC-MRCI
   Bernardo de Souza      : ESD, SOC TD-DFT
   Georgi Stoychev        : AutoAux, RI-MP2 NMR, DLPNO-MP2 response
   Willem Van den Heuvel  : Paramagnetic NMR
   Boris Wezisla          : Elementary symmetry handling
   Frank Wennmohs         : Technical directorship


 We gratefully acknowledge several colleagues who have allowed us to
 interface, adapt or use parts of their codes:
   Stefan Grimme, W. Hujo, H. Kruse, P. Pracht,  : VdW corrections, initial TS optimization,
                  C. Bannwarth, S. Ehlert          DFT functionals, gCP, sTDA/sTD-DF
   Ed Valeev, F. Pavosevic, A. Kumar             : LibInt (2-el integral package), F12 methods
   Garnet Chan, S. Sharma, J. Yang, R. Olivares  : DMRG
   Ulf Ekstrom                                   : XCFun DFT Library
   Mihaly Kallay                                 : mrcc  (arbitrary order and MRCC methods)
   Jiri Pittner, Ondrej Demel                    : Mk-CCSD
   Frank Weinhold                                : gennbo (NPA and NBO analysis)
   Christopher J. Cramer and Donald G. Truhlar   : smd solvation model
   Lars Goerigk                                  : TD-DFT with DH, B97 family of functionals
   V. Asgeirsson, H. Jonsson                     : NEB implementation
   FAccTs GmbH                                   : IRC, NEB, NEB-TS, DLPNO-Multilevel, CI-OPT
                                                   MM, QMMM, 2- and 3-layer-ONIOM, Crystal-QMMM,
                                                   LR-CPCM, SF, NACMEs, symmetry and pop. for TD-DFT,
                                                   nearIR, NL-DFT gradient (VV10), updates on ESD,
                                                   ML-optimized integration grids
   S Lehtola, MJT Oliveira, MAL Marques          : LibXC Library
   Liviu Ungur et al                             : ANISO software


 Your calculation uses the libint2 library for the computation of 2-el integrals
 For citations please refer to: http://libint.valeyev.net

 Your ORCA version has been built with support for libXC version: 5.1.0
 For citations please refer to: https://tddft.org/programs/libxc/

 This ORCA versions uses:
   CBLAS   interface :  Fast vector & matrix operations
   LAPACKE interface :  Fast linear algebra routines
   Shared memory     :  Shared parallel matrices


Your calculation utilizes the atom-pairwise dispersion correction
with the Becke-Johnson damping scheme (D3BJ)
Cite in your paper:
S.Grimme, S.Ehrlich, L.Goerigk, J Comput Chem, (2011), 32, 1456–1465 
S.Grimme, J.Antony, S.Ehrlich and H.Krieg, J.Chem.Phys., 132, (2010), 154104 
   

================================================================================

----- Orbital basis set information -----
Your calculation utilizes the basis: 6-311G*
   H, Li - Ne  : R. Krishnan, J. S. Binkley, R. Seeger and J. A. Pople, J. Chem. Phys. 72, 650 (1980).
   Na - Ar     : A. D. McLean and G. S. Chandler J. Chem. Phys. 72, 5639, (1980).
   K  - Ca     : J.-P. Blaudeau, M. P. McGrath, L. A. Curtiss and L. Radom, J. Chem. Phys. 107, 5016 (1997).
   Ga - Kr     : L. A. Curtiss, M. P. McGrath, J.-P. Blandeau, N. E. Davis, R. C. Binning and L. Radom, J. Chem. Phys. 103, 6104 (1995).
   Pol./Diff.
   H, Li - Cl  : T. Clark, J. Chandrasekhar and P. v. R. Schleyer, J. Comp. Chem. 4, 294 (1983).
   H - Ne      : M. J. Frisch, J. A. Pople and J. S. Binkley, J. Chem. Phys. 80, 3265 (1984).

----- AuxJ basis set information -----
Your calculation utilizes the auxiliary basis: def2/J
   F. Weigend, Phys. Chem. Chem. Phys. 8, 1057 (2006).

================================================================================
                                        WARNINGS
                       Please study these warnings very carefully!
================================================================================

WARNING: Old DensityContainer found on disk!
         Will remove this file - 
         If you want to keep old densities, please start your calculation with a different basename. 


WARNING: Geometry Optimization
  ===> : Switching off AutoStart
         For restart on a previous wavefunction, please use MOREAD

INFO   : the flag for use of the SHARK integral package has been found!

================================================================================
                                       INPUT FILE
================================================================================
NAME = pristine_coronene.inp
|  1> !B3LYP 6-311G** VERYTIGHTOPT FREQ D3 PAL4
|  2> %GEOM
|  3>   Maxiter 1500
|  4>   end
|  5>   
|  6> * xyz 0 1
|  7> C          2.46639       -2.78404       -0.00002
|  8> C          1.26559       -3.49747       -0.00002
|  9> C          0.03530       -2.82705       -0.00009
| 10> C         -1.17786       -3.52798       -0.00009
| 11> C         -2.39610       -2.84477       -0.00019
| 12> C         -2.43064       -1.44410       -0.00027
| 13> C         -3.64425       -0.74394       -0.00039
| 14> C         -3.66169        0.65270       -0.00045
| 15> C         -2.46595        1.38295       -0.00038
| 16> C         -2.46639        2.78404       -0.00041
| 17> C         -1.26559        3.49747       -0.00034
| 18> C         -0.03530        2.82705       -0.00026
| 19> C          1.17786        3.52798       -0.00020
| 20> C          2.39610        2.84477       -0.00015
| 21> C          2.43064        1.44410       -0.00015
| 22> C          3.64425        0.74394       -0.00011
| 23> C          3.66169       -0.65270       -0.00008
| 24> C          2.46595       -1.38295       -0.00008
| 25> C          1.23361       -0.69183       -0.00014
| 26> C          1.21595        0.72242       -0.00018
| 27> C         -0.01766        1.41425       -0.00024
| 28> C         -1.23361        0.69183       -0.00029
| 29> C         -1.21595       -0.72242       -0.00024
| 30> C          0.01766       -1.41425       -0.00015
| 31> H          3.40434       -3.33493        0.00002
| 32> H          1.30086       -4.58466        0.00004
| 33> H         -1.18597       -4.61571       -0.00003
| 34> H         -3.32000       -3.41891       -0.00020
| 35> H         -4.59031       -1.28078       -0.00043
| 36> H         -4.62086        1.16575       -0.00054
| 37> H         -3.40434        3.33493       -0.00048
| 38> H         -1.30086        4.58466       -0.00036
| 39> H          1.18597        4.61571       -0.00020
| 40> H          3.32000        3.41891       -0.00012
| 41> H          4.59031        1.28078       -0.00010
| 42> H          4.62086       -1.16575       -0.00005
| 43> **                         ****END OF INPUT****
================================================================================

                       *****************************
                       * Geometry Optimization Run *
                       *****************************

Geometry optimization settings:
Update method            Update   .... BFGS
Choice of coordinates    CoordSys .... Z-matrix Internals
Initial Hessian          InHess   .... Almoef's Model

Convergence Tolerances:
Energy Change            TolE     ....  2.0000e-07 Eh
Max. Gradient            TolMAXG  ....  3.0000e-05 Eh/bohr
RMS Gradient             TolRMSG  ....  8.0000e-06 Eh/bohr
Max. Displacement        TolMAXD  ....  2.0000e-04 bohr
RMS Displacement         TolRMSD  ....  1.0000e-04 bohr
Strict Convergence                ....  False
------------------------------------------------------------------------------
                        ORCA OPTIMIZATION COORDINATE SETUP
------------------------------------------------------------------------------

The optimization will be done in new redundant internal coordinates
Making redundant internal coordinates   ...  (new redundants) done
Evaluating the initial hessian          ...  (Almloef) done
Evaluating the coordinates              ...  done
Calculating the B-matrix                .... done
Calculating the G-matrix                .... done
Diagonalizing the G-matrix              .... done
The first mode is                       ....  132
The number of degrees of freedom        ....  102

    -----------------------------------------------------------------
                    Redundant Internal Coordinates


    -----------------------------------------------------------------
         Definition                    Initial Value    Approx d2E/dq
    -----------------------------------------------------------------
      1. B(C   1,C   0)                  1.3967         0.609500   
      2. B(C   2,C   1)                  1.4011         0.599835   
      3. B(C   3,C   2)                  1.4011         0.599848   
      4. B(C   4,C   3)                  1.3967         0.609515   
      5. B(C   5,C   4)                  1.4011         0.599841   
      6. B(C   6,C   5)                  1.4011         0.599838   
      7. B(C   7,C   6)                  1.3967         0.609496   
      8. B(C   8,C   7)                  1.4011         0.599849   
      9. B(C   9,C   8)                  1.4011         0.599853   
     10. B(C  10,C   9)                  1.3967         0.609500   
     11. B(C  11,C  10)                  1.4011         0.599835   
     12. B(C  12,C  11)                  1.4011         0.599848   
     13. B(C  13,C  12)                  1.3967         0.609515   
     14. B(C  14,C  13)                  1.4011         0.599841   
     15. B(C  15,C  14)                  1.4011         0.599838   
     16. B(C  16,C  15)                  1.3967         0.609496   
     17. B(C  17,C  16)                  1.4011         0.599849   
     18. B(C  17,C   0)                  1.4011         0.599853   
     19. B(C  18,C  17)                  1.4129         0.574368   
     20. B(C  19,C  18)                  1.4144         0.571312   
     21. B(C  19,C  14)                  1.4129         0.574379   
     22. B(C  20,C  19)                  1.4144         0.571306   
     23. B(C  20,C  11)                  1.4129         0.574364   
     24. B(C  21,C  20)                  1.4144         0.571304   
     25. B(C  21,C   8)                  1.4129         0.574368   
     26. B(C  22,C  21)                  1.4144         0.571312   
     27. B(C  22,C   5)                  1.4129         0.574379   
     28. B(C  23,C  22)                  1.4144         0.571306   
     29. B(C  23,C  18)                  1.4144         0.571304   
     30. B(C  23,C   2)                  1.4129         0.574364   
     31. B(H  24,C   0)                  1.0878         0.363070   
     32. B(H  25,C   1)                  1.0878         0.363073   
     33. B(H  26,C   3)                  1.0878         0.363075   
     34. B(H  27,C   4)                  1.0878         0.363072   
     35. B(H  28,C   6)                  1.0878         0.363072   
     36. B(H  29,C   7)                  1.0878         0.363072   
     37. B(H  30,C   9)                  1.0878         0.363070   
     38. B(H  31,C  10)                  1.0878         0.363073   
     39. B(H  32,C  12)                  1.0878         0.363075   
     40. B(H  33,C  13)                  1.0878         0.363072   
     41. B(H  34,C  15)                  1.0878         0.363072   
     42. B(H  35,C  16)                  1.0878         0.363072   
     43. A(C   1,C   0,C  17)          120.6978         0.430174   
     44. A(C   1,C   0,H  24)          118.8571         0.352380   
     45. A(C  17,C   0,H  24)          120.4452         0.351431   
     46. A(C   2,C   1,H  25)          120.4453         0.351429   
     47. A(C   0,C   1,H  25)          118.8577         0.352380   
     48. A(C   0,C   1,C   2)          120.6970         0.430172   
     49. A(C   1,C   2,C   3)          121.3947         0.428941   
     50. A(C   1,C   2,C  23)          119.3026         0.425617   
     51. A(C   3,C   2,C  23)          119.3028         0.425619   
     52. A(C   2,C   3,C   4)          120.6974         0.430175   
     53. A(C   2,C   3,H  26)          120.4453         0.351431   
     54. A(C   4,C   3,H  26)          118.8573         0.352382   
     55. A(C   5,C   4,H  27)          120.4455         0.351430   
     56. A(C   3,C   4,C   5)          120.6971         0.430174   
     57. A(C   3,C   4,H  27)          118.8574         0.352382   
     58. A(C   4,C   5,C   6)          121.3943         0.428941   
     59. A(C   6,C   5,C  22)          119.3027         0.425620   
     60. A(C   4,C   5,C  22)          119.3031         0.425620   
     61. A(C   5,C   6,C   7)          120.6971         0.430172   
     62. A(C   7,C   6,H  28)          118.8572         0.352380   
     63. A(C   5,C   6,H  28)          120.4457         0.351429   
     64. A(C   8,C   7,H  29)          120.4453         0.351430   
     65. A(C   6,C   7,H  29)          118.8573         0.352380   
     66. A(C   6,C   7,C   8)          120.6974         0.430173   
     67. A(C   7,C   8,C  21)          119.3026         0.425620   
     68. A(C   7,C   8,C   9)          121.3948         0.428944   
     69. A(C   9,C   8,C  21)          119.3025         0.425620   
     70. A(C   8,C   9,H  30)          120.4452         0.351431   
     71. A(C  10,C   9,H  30)          118.8571         0.352380   
     72. A(C   8,C   9,C  10)          120.6978         0.430174   
     73. A(C   9,C  10,H  31)          118.8577         0.352380   
     74. A(C   9,C  10,C  11)          120.6970         0.430172   
     75. A(C  11,C  10,H  31)          120.4453         0.351429   
     76. A(C  12,C  11,C  20)          119.3028         0.425619   
     77. A(C  10,C  11,C  20)          119.3026         0.425617   
     78. A(C  10,C  11,C  12)          121.3947         0.428941   
     79. A(C  11,C  12,C  13)          120.6974         0.430175   
     80. A(C  13,C  12,H  32)          118.8573         0.352382   
     81. A(C  11,C  12,H  32)          120.4453         0.351431   
     82. A(C  12,C  13,C  14)          120.6971         0.430174   
     83. A(C  14,C  13,H  33)          120.4455         0.351430   
     84. A(C  12,C  13,H  33)          118.8574         0.352382   
     85. A(C  13,C  14,C  15)          121.3943         0.428941   
     86. A(C  15,C  14,C  19)          119.3027         0.425620   
     87. A(C  13,C  14,C  19)          119.3031         0.425620   
     88. A(C  14,C  15,C  16)          120.6971         0.430172   
     89. A(C  16,C  15,H  34)          118.8572         0.352380   
     90. A(C  14,C  15,H  34)          120.4457         0.351429   
     91. A(C  17,C  16,H  35)          120.4453         0.351430   
     92. A(C  15,C  16,H  35)          118.8573         0.352380   
     93. A(C  15,C  16,C  17)          120.6974         0.430173   
     94. A(C  16,C  17,C  18)          119.3026         0.425620   
     95. A(C   0,C  17,C  18)          119.3025         0.425620   
     96. A(C   0,C  17,C  16)          121.3948         0.428944   
     97. A(C  17,C  18,C  19)          120.0000         0.421927   
     98. A(C  19,C  18,C  23)          120.0000         0.421524   
     99. A(C  17,C  18,C  23)          120.0001         0.421926   
    100. A(C  18,C  19,C  20)          119.9999         0.421524   
    101. A(C  14,C  19,C  20)          119.9998         0.421927   
    102. A(C  14,C  19,C  18)          120.0003         0.421928   
    103. A(C  11,C  20,C  19)          119.9998         0.421925   
    104. A(C  19,C  20,C  21)          120.0001         0.421523   
    105. A(C  11,C  20,C  21)          120.0000         0.421925   
    106. A(C  20,C  21,C  22)          120.0000         0.421524   
    107. A(C   8,C  21,C  22)          120.0000         0.421927   
    108. A(C   8,C  21,C  20)          120.0001         0.421926   
    109. A(C  21,C  22,C  23)          119.9999         0.421524   
    110. A(C   5,C  22,C  23)          119.9998         0.421927   
    111. A(C   5,C  22,C  21)          120.0003         0.421928   
    112. A(C  18,C  23,C  22)          120.0001         0.421523   
    113. A(C   2,C  23,C  22)          119.9998         0.421925   
    114. A(C   2,C  23,C  18)          120.0000         0.421925   
    115. D(H  25,C   1,C   0,H  24)      0.0012         0.025654   
    116. D(H  25,C   1,C   0,C  17)   -179.9992         0.025654   
    117. D(C   2,C   1,C   0,H  24)   -179.9991         0.025654   
    118. D(C   2,C   1,C   0,C  17)      0.0005         0.025654   
    119. D(C  23,C   2,C   1,H  25)    179.9992         0.024803   
    120. D(C  23,C   2,C   1,C   0)     -0.0005         0.024803   
    121. D(C   3,C   2,C   1,C   0)   -180.0000         0.024803   
    122. D(C   3,C   2,C   1,H  25)     -0.0002         0.024803   
    123. D(C   4,C   3,C   2,C  23)      0.0020         0.024804   
    124. D(H  26,C   3,C   2,C   1)      0.0003         0.024804   
    125. D(H  26,C   3,C   2,C  23)   -179.9991         0.024804   
    126. D(C   4,C   3,C   2,C   1)   -179.9986         0.024804   
    127. D(H  27,C   4,C   3,H  26)      0.0003         0.025656   
    128. D(C   5,C   4,C   3,H  26)   -180.0000         0.025656   
    129. D(C   5,C   4,C   3,C   2)     -0.0011         0.025656   
    130. D(H  27,C   4,C   3,C   2)    179.9992         0.025656   
    131. D(C  22,C   5,C   4,H  27)    179.9993         0.024804   
    132. D(C   6,C   5,C   4,H  27)     -0.0012         0.024804   
    133. D(C   6,C   5,C   4,C   3)    179.9991         0.024804   
    134. D(C  22,C   5,C   4,C   3)     -0.0004         0.024804   
    135. D(H  28,C   6,C   5,C  22)    179.9991         0.024803   
    136. D(C   7,C   6,C   5,C  22)     -0.0014         0.024803   
    137. D(H  28,C   6,C   5,C   4)     -0.0004         0.024803   
    138. D(C   7,C   6,C   5,C   4)    179.9991         0.024803   
    139. D(H  29,C   7,C   6,H  28)     -0.0003         0.025654   
    140. D(C   8,C   7,C   6,H  28)    179.9990         0.025654   
    141. D(H  29,C   7,C   6,C   5)   -179.9998         0.025654   
    142. D(C   8,C   7,C   6,C   5)     -0.0005         0.025654   
    143. D(C  21,C   8,C   7,C   6)      0.0020         0.024804   
    144. D(C   9,C   8,C   7,C   6)   -179.9986         0.024804   
    145. D(C   9,C   8,C   7,H  29)      0.0006         0.024804   
    146. D(C  21,C   8,C   7,H  29)   -179.9988         0.024804   
    147. D(H  30,C   9,C   8,C  21)    179.9999         0.024805   
    148. D(H  30,C   9,C   8,C   7)      0.0005         0.024805   
    149. D(C  10,C   9,C   8,C  21)     -0.0006         0.024805   
    150. D(C  10,C   9,C   8,C   7)   -180.0000         0.024805   
    151. D(H  31,C  10,C   9,H  30)     -0.0002         0.025654   
    152. D(H  31,C  10,C   9,C   8)   -179.9997         0.025654   
    153. D(C  11,C  10,C   9,H  30)   -179.9995         0.025654   
    154. D(C  11,C  10,C   9,C   8)      0.0010         0.025654   
    155. D(C  20,C  11,C  10,H  31)   -179.9998         0.024803   
    156. D(C  20,C  11,C  10,C   9)     -0.0005         0.024803   
    157. D(C  12,C  11,C  10,H  31)      0.0002         0.024803   
    158. D(C  12,C  11,C  10,C   9)    179.9995         0.024803   
    159. D(H  32,C  12,C  11,C  20)   -179.9991         0.024804   
    160. D(H  32,C  12,C  11,C  10)      0.0009         0.024804   
    161. D(C  13,C  12,C  11,C  20)      0.0014         0.024804   
    162. D(C  13,C  12,C  11,C  10)   -179.9986         0.024804   
    163. D(H  33,C  13,C  12,H  32)     -0.0005         0.025656   
    164. D(H  33,C  13,C  12,C  11)    179.9990         0.025656   
    165. D(C  14,C  13,C  12,H  32)   -179.9999         0.025656   
    166. D(C  14,C  13,C  12,C  11)     -0.0004         0.025656   
    167. D(C  19,C  14,C  13,H  33)    179.9996         0.024804   
    168. D(C  19,C  14,C  13,C  12)     -0.0010         0.024804   
    169. D(C  15,C  14,C  13,H  33)      0.0001         0.024804   
    170. D(C  15,C  14,C  13,C  12)    179.9995         0.024804   
    171. D(H  34,C  15,C  14,C  19)    179.9992         0.024803   
    172. D(C  16,C  15,C  14,C  19)     -0.0009         0.024803   
    173. D(C  16,C  15,C  14,C  13)    179.9985         0.024803   
    174. D(H  34,C  15,C  14,C  13)     -0.0013         0.024803   
    175. D(H  35,C  16,C  15,C  14)    180.0000         0.025654   
    176. D(C  17,C  16,C  15,H  34)    179.9995         0.025654   
    177. D(C  17,C  16,C  15,C  14)     -0.0004         0.025654   
    178. D(H  35,C  16,C  15,H  34)     -0.0002         0.025654   
    179. D(C  18,C  17,C  16,H  35)   -179.9990         0.024804   
    180. D(C  18,C  17,C  16,C  15)      0.0014         0.024804   
    181. D(C   0,C  17,C  16,H  35)      0.0010         0.024804   
    182. D(C   0,C  17,C  16,C  15)   -179.9986         0.024804   
    183. D(C  18,C  17,C   0,H  24)    179.9996         0.024805   
    184. D(C  18,C  17,C   0,C   1)      0.0000         0.024805   
    185. D(C  16,C  17,C   0,H  24)     -0.0005         0.024805   
    186. D(C  16,C  17,C   0,C   1)    180.0000         0.024805   
    187. D(C  23,C  18,C  17,C  16)    179.9996         0.022645   
    188. D(C  23,C  18,C  17,C   0)     -0.0005         0.022645   
    189. D(C  19,C  18,C  17,C  16)     -0.0009         0.022645   
    190. D(C  19,C  18,C  17,C   0)    179.9990         0.022645   
    191. D(C  20,C  19,C  18,C  23)     -0.0005         0.022394   
    192. D(C  20,C  19,C  18,C  17)   -180.0000         0.022394   
    193. D(C  14,C  19,C  18,C  23)    179.9991         0.022394   
    194. D(C  14,C  19,C  18,C  17)     -0.0005         0.022394   
    195. D(C  20,C  19,C  14,C  15)   -179.9991         0.022646   
    196. D(C  20,C  19,C  14,C  13)      0.0014         0.022646   
    197. D(C  18,C  19,C  14,C  15)      0.0014         0.022646   
    198. D(C  18,C  19,C  14,C  13)   -179.9981         0.022646   
    199. D(C  21,C  20,C  19,C  18)     -0.0014         0.022394   
    200. D(C  21,C  20,C  19,C  14)    179.9991         0.022394   
    201. D(C  11,C  20,C  19,C  18)    179.9991         0.022394   
    202. D(C  11,C  20,C  19,C  14)     -0.0005         0.022394   
    203. D(C  21,C  20,C  11,C  12)    179.9995         0.022645   
    204. D(C  21,C  20,C  11,C  10)     -0.0005         0.022645   
    205. D(C  19,C  20,C  11,C  12)     -0.0009         0.022645   
    206. D(C  19,C  20,C  11,C  10)    179.9990         0.022645   
    207. D(C  22,C  21,C  20,C  19)      0.0019         0.022394   
    208. D(C  22,C  21,C  20,C  11)   -179.9986         0.022394   
    209. D(C   8,C  21,C  20,C  19)   -179.9986         0.022394   
    210. D(C   8,C  21,C  20,C  11)      0.0009         0.022394   
    211. D(C  22,C  21,C   8,C   9)    179.9991         0.022645   
    212. D(C  22,C  21,C   8,C   7)     -0.0015         0.022645   
    213. D(C  20,C  21,C   8,C   9)     -0.0004         0.022645   
    214. D(C  20,C  21,C   8,C   7)    179.9990         0.022645   
    215. D(C  23,C  22,C  21,C  20)     -0.0005         0.022394   
    216. D(C  23,C  22,C  21,C   8)    180.0000         0.022394   
    217. D(C   5,C  22,C  21,C  20)    179.9991         0.022394   
    218. D(C   5,C  22,C  21,C   8)     -0.0005         0.022394   
    219. D(C  23,C  22,C   5,C   6)   -179.9986         0.022646   
    220. D(C  23,C  22,C   5,C   4)      0.0009         0.022646   
    221. D(C  21,C  22,C   5,C   6)      0.0019         0.022646   
    222. D(C  21,C  22,C   5,C   4)   -179.9986         0.022646   
    223. D(C  18,C  23,C  22,C  21)     -0.0014         0.022394   
    224. D(C   2,C  23,C  22,C  21)    179.9995         0.022394   
    225. D(C   2,C  23,C  22,C   5)     -0.0000         0.022394   
    226. D(C  22,C  23,C  18,C  19)      0.0019         0.022394   
    227. D(C  22,C  23,C  18,C  17)   -179.9986         0.022394   
    228. D(C   2,C  23,C  18,C  19)   -179.9991         0.022394   
    229. D(C   2,C  23,C  18,C  17)      0.0005         0.022394   
    230. D(C  22,C  23,C   2,C   3)     -0.0014         0.022645   
    231. D(C  22,C  23,C   2,C   1)    179.9991         0.022645   
    232. D(C  18,C  23,C  22,C   5)    179.9991         0.022394   
    233. D(C  18,C  23,C   2,C   3)    179.9995         0.022645   
    234. D(C  18,C  23,C   2,C   1)      0.0000         0.022645   
    -----------------------------------------------------------------

Number of atoms                         .... 36
Number of degrees of freedom            .... 234

         *************************************************************
         *                GEOMETRY OPTIMIZATION CYCLE   1            *
         *************************************************************
---------------------------------
CARTESIAN COORDINATES (ANGSTROEM)
---------------------------------
  C      2.466390   -2.784040   -0.000020
  C      1.265590   -3.497470   -0.000020
  C      0.035300   -2.827050   -0.000090
  C     -1.177860   -3.527980   -0.000090
  C     -2.396100   -2.844770   -0.000190
  C     -2.430640   -1.444100   -0.000270
  C     -3.644250   -0.743940   -0.000390
  C     -3.661690    0.652700   -0.000450
  C     -2.465950    1.382950   -0.000380
  C     -2.466390    2.784040   -0.000410
  C     -1.265590    3.497470   -0.000340
  C     -0.035300    2.827050   -0.000260
  C      1.177860    3.527980   -0.000200
  C      2.396100    2.844770   -0.000150
  C      2.430640    1.444100   -0.000150
  C      3.644250    0.743940   -0.000110
  C      3.661690   -0.652700   -0.000080
  C      2.465950   -1.382950   -0.000080
  C      1.233610   -0.691830   -0.000140
  C      1.215950    0.722420   -0.000180
  C     -0.017660    1.414250   -0.000240
  C     -1.233610    0.691830   -0.000290
  C     -1.215950   -0.722420   -0.000240
  C      0.017660   -1.414250   -0.000150
  H      3.404340   -3.334930    0.000020
  H      1.300860   -4.584660    0.000040
  H     -1.185970   -4.615710   -0.000030
  H     -3.320000   -3.418910   -0.000200
  H     -4.590310   -1.280780   -0.000430
  H     -4.620860    1.165750   -0.000540
  H     -3.404340    3.334930   -0.000480
  H     -1.300860    4.584660   -0.000360
  H      1.185970    4.615710   -0.000200
  H      3.320000    3.418910   -0.000120
  H      4.590310    1.280780   -0.000100
  H      4.620860   -1.165750   -0.000050

----------------------------
CARTESIAN COORDINATES (A.U.)
----------------------------
  NO LB      ZA    FRAG     MASS         X           Y           Z
   0 C     6.0000    0    12.011    4.660802   -5.261073   -0.000038
   1 C     6.0000    0    12.011    2.391618   -6.609260   -0.000038
   2 C     6.0000    0    12.011    0.066707   -5.342350   -0.000170
   3 C     6.0000    0    12.011   -2.225833   -6.666916   -0.000170
   4 C     6.0000    0    12.011   -4.527973   -5.375836   -0.000359
   5 C     6.0000    0    12.011   -4.593244   -2.728954   -0.000510
   6 C     6.0000    0    12.011   -6.886634   -1.405843   -0.000737
   7 C     6.0000    0    12.011   -6.919591    1.233424   -0.000850
   8 C     6.0000    0    12.011   -4.659970    2.613397   -0.000718
   9 C     6.0000    0    12.011   -4.660802    5.261073   -0.000775
  10 C     6.0000    0    12.011   -2.391618    6.609260   -0.000643
  11 C     6.0000    0    12.011   -0.066707    5.342350   -0.000491
  12 C     6.0000    0    12.011    2.225833    6.666916   -0.000378
  13 C     6.0000    0    12.011    4.527973    5.375836   -0.000283
  14 C     6.0000    0    12.011    4.593244    2.728954   -0.000283
  15 C     6.0000    0    12.011    6.886634    1.405843   -0.000208
  16 C     6.0000    0    12.011    6.919591   -1.233424   -0.000151
  17 C     6.0000    0    12.011    4.659970   -2.613397   -0.000151
  18 C     6.0000    0    12.011    2.331185   -1.307369   -0.000265
  19 C     6.0000    0    12.011    2.297812    1.365176   -0.000340
  20 C     6.0000    0    12.011   -0.033373    2.672545   -0.000454
  21 C     6.0000    0    12.011   -2.331185    1.307369   -0.000548
  22 C     6.0000    0    12.011   -2.297812   -1.365176   -0.000454
  23 C     6.0000    0    12.011    0.033373   -2.672545   -0.000283
  24 H     1.0000    0     1.008    6.433270   -6.302104    0.000038
  25 H     1.0000    0     1.008    2.458269   -8.663752    0.000076
  26 H     1.0000    0     1.008   -2.241159   -8.722428   -0.000057
  27 H     1.0000    0     1.008   -6.273891   -6.460804   -0.000378
  28 H     1.0000    0     1.008   -8.674429   -2.420323   -0.000813
  29 H     1.0000    0     1.008   -8.732160    2.202948   -0.001020
  30 H     1.0000    0     1.008   -6.433270    6.302104   -0.000907
  31 H     1.0000    0     1.008   -2.458269    8.663752   -0.000680
  32 H     1.0000    0     1.008    2.241159    8.722428   -0.000378
  33 H     1.0000    0     1.008    6.273891    6.460804   -0.000227
  34 H     1.0000    0     1.008    8.674429    2.420323   -0.000189
  35 H     1.0000    0     1.008    8.732160   -2.202948   -0.000094

--------------------------------
INTERNAL COORDINATES (ANGSTROEM)
--------------------------------
 C      0   0   0     0.000000000000     0.00000000     0.00000000
 C      1   0   0     1.396747294574     0.00000000     0.00000000
 C      2   1   0     1.401098306829   120.69700621     0.00000000
 C      3   2   1     1.401092448948   121.39465401   180.00004750
 C      4   3   2     1.396740710261   120.69741643   180.00141708
 C      5   4   3     1.401095809322   120.69706638     0.00000000
 C      6   5   4     1.401097167259   121.39425941   179.99907597
 C      7   6   5     1.396748884660   120.69707471   179.99911111
 C      8   7   6     1.401092150788   120.69739474     0.00000000
 C      9   8   7     1.401090069410   121.39482323   180.00137764
 C     10   9   8     1.396747296328   120.69777795   180.00003446
 C     11  10   9     1.401098307365   120.69700634     0.00000000
 C     12  11  10     1.401092450233   121.39465413   179.99948079
 C     13  12  11     1.396740707576   120.69741657   180.00140660
 C     14  13  12     1.401095807038   120.69706623     0.00000000
 C     15  14  13     1.401097162691   121.39425925   179.99953100
 C     16  15  14     1.396748883694   120.69707464   179.99854172
 C      1   2   3     1.401090070374   120.69777804     0.00000000
 C     18   1   2     1.412907899900   119.30254088     0.00000000
 C     15  14  13     1.412902622051   119.30307959     0.00000000
 C     12  11  10     1.412910120991   119.30257142     0.00000000
 C      9   8   7     1.412907901493   119.30263594     0.00000000
 C      6   5   4     1.412902622051   119.30307945     0.00000000
 C      3   2   1     1.412910122124   119.30257149     0.00000000
 H      1   2   3     1.087763759371   118.85706067   180.00092337
 H      2   1   3     1.087761955852   118.85766581   180.00027947
 H      4   3   2     1.087760234886   120.44530682     0.00000000
 H      5   4   3     1.087762818679   118.85744523   179.99922370
 H      7   6   5     1.087762249207   120.44568357     0.00000000
 H      8   7   6     1.087762565774   118.85728219   180.00018925
 H     10   9   8     1.087763760887   120.44516126     0.00000000
 H     11  10   9     1.087761954382   118.85766576   180.00034634
 H     13  12  11     1.087760233232   120.44530684     0.00000000
 H     14  13  12     1.087762819047   118.85744530   179.99903822
 H     16  15  14     1.087762248518   120.44568351     0.00000000
 H     17  16  15     1.087762562465   118.85728212   179.99995440

---------------------------
INTERNAL COORDINATES (A.U.)
---------------------------
 C      0   0   0     0.000000000000     0.00000000     0.00000000
 C      1   0   0     2.639469865040     0.00000000     0.00000000
 C      2   1   0     2.647692086608   120.69700621     0.00000000
 C      3   2   1     2.647681016817   121.39465401   180.00004750
 C      4   3   2     2.639457422492   120.69741643   180.00141708
 C      5   4   3     2.647687367004   120.69706638     0.00000000
 C      6   5   4     2.647689933132   121.39425941   179.99907597
 C      7   6   5     2.639472869868   120.69707471   179.99911111
 C      8   7   6     2.647680453376   120.69739474     0.00000000
 C      9   8   7     2.647676520142   121.39482323   180.00137764
 C     10   9   8     2.639469868355   120.69777795   180.00003446
 C     11  10   9     2.647692087620   120.69700634     0.00000000
 C     12  11  10     2.647681019245   121.39465413   179.99948079
 C     13  12  11     2.639457417418   120.69741657   180.00140660
 C     14  13  12     2.647687362688   120.69706623     0.00000000
 C     15  14  13     2.647689924500   121.39425925   179.99953100
 C     16  15  14     2.639472868042   120.69707464   179.99854172
 C      1   2   3     2.647676521963   120.69777804     0.00000000
 C     18   1   2     2.670008983265   119.30254088     0.00000000
 C     15  14  13     2.669999009577   119.30307959     0.00000000
 C     12  11  10     2.670013180519   119.30257142     0.00000000
 C      9   8   7     2.670008986274   119.30263594     0.00000000
 C      6   5   4     2.669999009577   119.30307945     0.00000000
 C      3   2   1     2.670013182659   119.30257149     0.00000000
 H      1   2   3     2.055575603615   118.85706067   180.00092337
 H      2   1   3     2.055572195460   118.85766581   180.00027947
 H      4   3   2     2.055568943305   120.44530682     0.00000000
 H      5   4   3     2.055573825965   118.85744523   179.99922370
 H      7   6   5     2.055572749820   120.44568357     0.00000000
 H      8   7   6     2.055573348045   118.85728219   180.00018925
 H     10   9   8     2.055575606481   120.44516126     0.00000000
 H     11  10   9     2.055572192680   118.85766576   180.00034634
 H     13  12  11     2.055568940178   120.44530684     0.00000000
 H     14  13  12     2.055573826660   118.85744530   179.99903822
 H     16  15  14     2.055572748517   120.44568351     0.00000000
 H     17  16  15     2.055573341791   118.85728212   179.99995440

---------------------
BASIS SET INFORMATION
---------------------
There are 2 groups of distinct atoms

 Group   1 Type C   : 11s5p1d contracted to 4s3p1d pattern {6311/311/1}
 Group   2 Type H   : 5s contracted to 3s pattern {311}

Atom   0C    basis set group =>   1
Atom   1C    basis set group =>   1
Atom   2C    basis set group =>   1
Atom   3C    basis set group =>   1
Atom   4C    basis set group =>   1
Atom   5C    basis set group =>   1
Atom   6C    basis set group =>   1
Atom   7C    basis set group =>   1
Atom   8C    basis set group =>   1
Atom   9C    basis set group =>   1
Atom  10C    basis set group =>   1
Atom  11C    basis set group =>   1
Atom  12C    basis set group =>   1
Atom  13C    basis set group =>   1
Atom  14C    basis set group =>   1
Atom  15C    basis set group =>   1
Atom  16C    basis set group =>   1
Atom  17C    basis set group =>   1
Atom  18C    basis set group =>   1
Atom  19C    basis set group =>   1
Atom  20C    basis set group =>   1
Atom  21C    basis set group =>   1
Atom  22C    basis set group =>   1
Atom  23C    basis set group =>   1
Atom  24H    basis set group =>   2
Atom  25H    basis set group =>   2
Atom  26H    basis set group =>   2
Atom  27H    basis set group =>   2
Atom  28H    basis set group =>   2
Atom  29H    basis set group =>   2
Atom  30H    basis set group =>   2
Atom  31H    basis set group =>   2
Atom  32H    basis set group =>   2
Atom  33H    basis set group =>   2
Atom  34H    basis set group =>   2
Atom  35H    basis set group =>   2
---------------------------------
AUXILIARY/J BASIS SET INFORMATION
---------------------------------
There are 2 groups of distinct atoms

 Group   1 Type C   : 12s5p4d2f1g contracted to 6s4p3d1f1g pattern {711111/2111/211/2/1}
 Group   2 Type H   : 5s2p1d contracted to 3s1p1d pattern {311/2/1}

Atom   0C    basis set group =>   1
Atom   1C    basis set group =>   1
Atom   2C    basis set group =>   1
Atom   3C    basis set group =>   1
Atom   4C    basis set group =>   1
Atom   5C    basis set group =>   1
Atom   6C    basis set group =>   1
Atom   7C    basis set group =>   1
Atom   8C    basis set group =>   1
Atom   9C    basis set group =>   1
Atom  10C    basis set group =>   1
Atom  11C    basis set group =>   1
Atom  12C    basis set group =>   1
Atom  13C    basis set group =>   1
Atom  14C    basis set group =>   1
Atom  15C    basis set group =>   1
Atom  16C    basis set group =>   1
Atom  17C    basis set group =>   1
Atom  18C    basis set group =>   1
Atom  19C    basis set group =>   1
Atom  20C    basis set group =>   1
Atom  21C    basis set group =>   1
Atom  22C    basis set group =>   1
Atom  23C    basis set group =>   1
Atom  24H    basis set group =>   2
Atom  25H    basis set group =>   2
Atom  26H    basis set group =>   2
Atom  27H    basis set group =>   2
Atom  28H    basis set group =>   2
Atom  29H    basis set group =>   2
Atom  30H    basis set group =>   2
Atom  31H    basis set group =>   2
Atom  32H    basis set group =>   2
Atom  33H    basis set group =>   2
Atom  34H    basis set group =>   2
Atom  35H    basis set group =>   2


           ************************************************************
           *        Program running with 4 parallel MPI-processes     *
           *              working on a common directory               *
           ************************************************************
------------------------------------------------------------------------------
                           ORCA GTO INTEGRAL CALCULATION
                           -- RI-GTO INTEGRALS CHOSEN --
------------------------------------------------------------------------------
------------------------------------------------------------------------------
                   ___                                                        
                  /   \      - P O W E R E D   B Y -                         
                 /     \                                                     
                 |  |  |   _    _      __       _____    __    __             
                 |  |  |  | |  | |    /  \     |  _  \  |  |  /  |          
                  \  \/   | |  | |   /    \    | | | |  |  | /  /          
                 / \  \   | |__| |  /  /\  \   | |_| |  |  |/  /          
                |  |  |   |  __  | /  /__\  \  |    /   |      \           
                |  |  |   | |  | | |   __   |  |    \   |  |\   \          
                \     /   | |  | | |  |  |  |  | |\  \  |  | \   \       
                 \___/    |_|  |_| |__|  |__|  |_| \__\ |__|  \__/        
                                                                              
                      - O R C A' S   B I G   F R I E N D -                    
                                      &                                       
                       - I N T E G R A L  F E E D E R -                       
                                                                              
 v1 FN, 2020, v2 2021                                                         
------------------------------------------------------------------------------


Reading SHARK input file pristine_coronene.SHARKINP.tmp ... ok
----------------------
SHARK INTEGRAL PACKAGE
----------------------

Number of atoms                             ...     36
Number of basis functions                   ...    468
Number of shells                            ...    228
Maximum angular momentum                    ...      2
Integral batch strategy                     ... SHARK/LIBINT Hybrid
RI-J (if used) integral strategy            ... SPLIT-RIJ (Revised 2003 algorithm where possible)
Printlevel                                  ...      1
Contraction scheme used                     ... SEGMENTED contraction
Coulomb Range Separation                    ... NOT USED
Exchange Range Separation                   ... NOT USED
Finite Nucleus Model                        ... NOT USED
Auxiliary Coulomb fitting basis             ... AVAILABLE
   # of basis functions in Aux-J            ...   1308
   # of shells in Aux-J                     ...    420
   Maximum angular momentum in Aux-J        ...      4
Auxiliary J/K fitting basis                 ... NOT available
Auxiliary Correlation fitting basis         ... NOT available
Auxiliary 'external' fitting basis          ... NOT available
Integral threshold                          ...     1.000000e-13
Primitive cut-off                           ...     1.000000e-14
Primitive pair pre-selection threshold      ...     1.000000e-14

Calculating pre-screening integrals         ... done (  0.1 sec) Dimension = 228
Organizing shell pair data                  ... done (  0.1 sec)
Shell pair information
Total number of shell pairs                 ...     26106
Shell pairs after pre-screening             ...     20386
Total number of primitive shell pairs       ...    110286
Primitive shell pairs kept                  ...     53037
          la=0 lb=0:   6387 shell pairs
          la=1 lb=0:   7590 shell pairs
          la=1 lb=1:   2317 shell pairs
          la=2 lb=0:   2376 shell pairs
          la=2 lb=1:   1470 shell pairs
          la=2 lb=2:    246 shell pairs

Calculating one electron integrals          ... done (  0.0 sec)
Calculating RI/J V-Matrix + Cholesky decomp.... done (  0.1 sec)
Calculating Nuclear repulsion               ... done (  0.0 sec) ENN=   1842.817673713110 Eh

SHARK setup successfully completed in   0.6 seconds

Maximum memory used throughout the entire GTOINT-calculation: 33.8 MB


           ************************************************************
           *        Program running with 4 parallel MPI-processes     *
           *              working on a common directory               *
           ************************************************************
-------------------------------------------------------------------------------
                                 ORCA SCF
-------------------------------------------------------------------------------

------------
SCF SETTINGS
------------
Hamiltonian:
 Density Functional     Method          .... DFT(GTOs)
 Exchange Functional    Exchange        .... B88
   X-Alpha parameter    XAlpha          ....  0.666667
   Becke's b parameter  XBeta           ....  0.004200
 Correlation Functional Correlation     .... LYP
 LDA part of GGA corr.  LDAOpt          .... VWN-5
 Gradients option       PostSCFGGA      .... off
 Hybrid DFT is turned on
   Fraction HF Exchange ScalHFX         ....  0.200000
   Scaling of DF-GGA-X  ScalDFX         ....  0.720000
   Scaling of DF-GGA-C  ScalDFC         ....  0.810000
   Scaling of DF-LDA-C  ScalLDAC        ....  1.000000
   Perturbative correction              ....  0.000000
   Density functional embedding theory  .... OFF
   NL short-range parameter             ....  4.800000
 RI-approximation to the Coulomb term is turned on
   Number of AuxJ basis functions       .... 1308
   RIJ-COSX (HFX calculated with COS-X)).... on


General Settings:
 Integral files         IntName         .... pristine_coronene
 Hartree-Fock type      HFTyp           .... RHF
 Total Charge           Charge          ....    0
 Multiplicity           Mult            ....    1
 Number of Electrons    NEL             ....  156
 Basis Dimension        Dim             ....  468
 Nuclear Repulsion      ENuc            ....   1842.8176737131 Eh

Convergence Acceleration:
 DIIS                   CNVDIIS         .... on
   Start iteration      DIISMaxIt       ....    12
   Startup error        DIISStart       ....  0.200000
   # of expansion vecs  DIISMaxEq       ....     5
   Bias factor          DIISBfac        ....   1.050
   Max. coefficient     DIISMaxC        ....  10.000
 Trust-Rad. Augm. Hess. CNVTRAH         .... auto
   Auto Start mean grad. ratio tolernc. ....  1.125000
   Auto Start start iteration           ....    20
   Auto Start num. interpolation iter.  ....    10
   Max. Number of Micro iterations      ....    16
   Max. Number of Macro iterations      .... Maxiter - #DIIS iter
   Number of Davidson start vectors     ....     2
   Converg. threshold I  (grad. norm)   ....   1.000e-06
   Converg. threshold II (energy diff.) ....   1.000e-10
   Grad. Scal. Fac. for Micro threshold ....   0.100
   Minimum threshold for Micro iter.    ....   0.010
   NR start threshold (gradient norm)   ....   0.001
   Initial trust radius                 ....   0.400
   Minimum AH scaling param. (alpha)    ....   1.000
   Maximum AH scaling param. (alpha)    .... 1000.000
   Orbital update algorithm             .... Taylor
   White noise on init. David. guess    .... on
   Maximum white noise                  ....   0.010
   Quad. conv. algorithm                .... NR
 SOSCF                  CNVSOSCF        .... on
   Start iteration      SOSCFMaxIt      ....   150
   Startup grad/error   SOSCFStart      ....  0.003300
 Level Shifting         CNVShift        .... on
   Level shift para.    LevelShift      ....    0.2500
   Turn off err/grad.   ShiftErr        ....    0.0010
 Zerner damping         CNVZerner       .... off
 Static damping         CNVDamp         .... on
   Fraction old density DampFac         ....    0.7000
   Max. Damping (<1)    DampMax         ....    0.9800
   Min. Damping (>=0)   DampMin         ....    0.0000
   Turn off err/grad.   DampErr         ....    0.1000
 Fernandez-Rico         CNVRico         .... off

SCF Procedure:
 Maximum # iterations   MaxIter         ....   125
 SCF integral mode      SCFMode         .... Direct
   Integral package                     .... SHARK and LIBINT hybrid scheme
 Reset frequency        DirectResetFreq ....    20
 Integral Threshold     Thresh          ....  1.000e-13 Eh
 Primitive CutOff       TCut            ....  1.000e-14 Eh

Convergence Tolerance:
 Convergence Check Mode ConvCheckMode   .... Total+1el-Energy
 Convergence forced     ConvForced      .... 0
 Energy Change          TolE            ....  1.000e-10 Eh
 1-El. energy change                    ....  1.000e-07 Eh
 Orbital Gradient       TolG            ....  1.000e-06
 Orbital Rotation angle TolX            ....  1.000e-06
 DIIS Error             TolErr          ....  1.000e-10


Diagonalization of the overlap matrix:
Smallest eigenvalue                        ... 1.604e-05
Time for diagonalization                   ...    0.038 sec
Threshold for overlap eigenvalues          ... 1.000e-08
Number of eigenvalues below threshold      ... 0
Time for construction of square roots      ...    0.027 sec
Total time needed                          ...    0.066 sec

Time for model grid setup =    0.549 sec

------------------------------
INITIAL GUESS: MODEL POTENTIAL
------------------------------
Loading Hartree-Fock densities                     ... done
Calculating cut-offs                               ... done
Initializing the effective Hamiltonian             ... done
Setting up the integral package (SHARK)            ... done
Starting the Coulomb interaction                   ... done (   0.6 sec)
Reading the grid                                   ... done
Mapping shells                                     ... done
Starting the XC term evaluation                    ... done (   0.6 sec)
  promolecular density results
     # of electrons  =    155.981873808
     EX              =   -127.153550966
     EC              =     -5.321899607
     EX+EC           =   -132.475450572
Transforming the Hamiltonian                       ... done (   0.0 sec)
Diagonalizing the Hamiltonian                      ... done (   0.0 sec)
Back transforming the eigenvectors                 ... done (   0.0 sec)
Now organizing SCF variables                       ... done
                      ------------------
                      INITIAL GUESS DONE (   1.8 sec)
                      ------------------
-------------------
DFT GRID GENERATION
-------------------

General Integration Accuracy     IntAcc      ... 4.388
Radial Grid Type                 RadialGrid  ... OptM3 with GC (2021)
Angular Grid (max. ang.)         AngularGrid ... 4 (Lebedev-302)
Angular grid pruning method      GridPruning ... 4 (adaptive)
Weight generation scheme         WeightScheme... Becke
Basis function cutoff            BFCut       ... 3.0000e-14
Integration weight cutoff        WCut        ... 1.0000e-14
Angular grids for H and He will be reduced by one unit
Partially contracted basis set               ... off
Rotationally invariant grid construction     ... off

Total number of grid points                  ...   180516
Total number of batches                      ...     2840
Average number of points per batch           ...       63
Average number of grid points per atom       ...     5014
Time for grid setup =    1.874 sec

--------------------
COSX GRID GENERATION
--------------------

GRIDX 1
-------
General Integration Accuracy     IntAcc      ... 3.816
Radial Grid Type                 RadialGrid  ... OptM3 with GC (2021)
Angular Grid (max. ang.)         AngularGrid ... 1 (Lebedev-50)
Angular grid pruning method      GridPruning ... 4 (adaptive)
Weight generation scheme         WeightScheme... Becke
Basis function cutoff            BFCut       ... 3.0000e-14
Integration weight cutoff        WCut        ... 1.0000e-14
Angular grids for H and He will be reduced by one unit
Partially contracted basis set               ... on
Rotationally invariant grid construction     ... off

Total number of grid points                  ...    22972
Total number of batches                      ...      374
Average number of points per batch           ...       61
Average number of grid points per atom       ...      638
UseSFitting                                  ... on

GRIDX 2
-------
General Integration Accuracy     IntAcc      ... 4.020
Radial Grid Type                 RadialGrid  ... OptM3 with GC (2021)
Angular Grid (max. ang.)         AngularGrid ... 2 (Lebedev-110)
Angular grid pruning method      GridPruning ... 4 (adaptive)
Weight generation scheme         WeightScheme... Becke
Basis function cutoff            BFCut       ... 3.0000e-14
Integration weight cutoff        WCut        ... 1.0000e-14
Angular grids for H and He will be reduced by one unit
Partially contracted basis set               ... on
Rotationally invariant grid construction     ... off

Total number of grid points                  ...    50466
Total number of batches                      ...      810
Average number of points per batch           ...       62
Average number of grid points per atom       ...     1402
UseSFitting                                  ... on

GRIDX 3
-------
General Integration Accuracy     IntAcc      ... 4.338
Radial Grid Type                 RadialGrid  ... OptM3 with GC (2021)
Angular Grid (max. ang.)         AngularGrid ... 3 (Lebedev-194)
Angular grid pruning method      GridPruning ... 4 (adaptive)
Weight generation scheme         WeightScheme... Becke
Basis function cutoff            BFCut       ... 3.0000e-14
Integration weight cutoff        WCut        ... 1.0000e-14
Angular grids for H and He will be reduced by one unit
Partially contracted basis set               ... on
Rotationally invariant grid construction     ... off

Total number of grid points                  ...   110872
Total number of batches                      ...     1750
Average number of points per batch           ...       63
Average number of grid points per atom       ...     3080
UseSFitting                                  ... on

Time for X-Grid setup             =    2.655 sec

--------------
SCF ITERATIONS
--------------
ITER       Energy         Delta-E        Max-DP      RMS-DP      [F,P]     Damp
               ***  Starting incremental Fock matrix formation  ***
  0   -921.0760512897   0.000000000000 0.07633776  0.00156844  0.1448751 0.7000
  1   -921.2499628676  -0.173911577904 0.05288220  0.00114810  0.0803451 0.7000
                               ***Turning on DIIS***
  2   -921.3346739803  -0.084711112672 0.10436511  0.00232462  0.0365266 0.0000
  3   -921.4585186577  -0.123844677400 0.02183985  0.00057349  0.0405233 0.0000
  4   -921.4855290109  -0.027010353247 0.00450091  0.00015393  0.0055194 0.0000
                      *** Initiating the SOSCF procedure ***
                           *** Shutting down DIIS ***
                      *** Re-Reading the Fockian *** 
                      *** Removing any level shift *** 
ITER      Energy       Delta-E        Grad      Rot      Max-DP    RMS-DP
  5   -921.48642610  -0.0008970902  0.000631  0.000631  0.001072  0.000045
               *** Restarting incremental Fock matrix formation ***
  6   -921.48652584  -0.0000997434  0.000263  0.001210  0.000984  0.000036
  7   -921.48652754  -0.0000016929  0.000310  0.000610  0.000259  0.000009
  8   -921.48653158  -0.0000040391  0.000072  0.000317  0.000200  0.000007
  9   -921.48653139   0.0000001871  0.000084  0.000142  0.000085  0.000002
 10   -921.48653184  -0.0000004523  0.000012  0.000035  0.000038  0.000002
 11   -921.48653183   0.0000000097  0.000012  0.000014  0.000019  0.000001
 12   -921.48653185  -0.0000000167  0.000001  0.000002  0.000003  0.000000
                  ***Gradient check signals convergence***
              ***Rediagonalizing the Fockian in SOSCF/NRSCF***

               *****************************************************
               *                     SUCCESS                       *
               *           SCF CONVERGED AFTER  13 CYCLES          *
               *****************************************************

Old exchange energy                            =    -25.812868002 Eh
New exchange energy                            =    -25.812977812 Eh
Exchange energy change after final integration =     -0.000109810 Eh
Total energy after final integration           =   -921.486641659 Eh
Final COS-X integration done in                =    32.527 sec

----------------
TOTAL SCF ENERGY
----------------

Total Energy       :         -921.48664166 Eh          -25074.92630 eV

Components:
Nuclear Repulsion  :         1842.81767371 Eh           50145.61826 eV
Electronic Energy  :        -2764.30431537 Eh          -75220.54456 eV
One Electron Energy:        -4907.01715269 Eh         -133526.72509 eV
Two Electron Energy:         2142.71283732 Eh           58306.18053 eV
Max COSX asymmetry :            0.00000080 Eh               0.00002 eV

Virial components:
Potential Energy   :        -1840.13837480 Eh          -50072.71083 eV
Kinetic Energy     :          918.65173314 Eh           24997.78452 eV
Virial Ratio       :            2.00308594


DFT components:
N(Alpha)           :       78.000220119999 electrons
N(Beta)            :       78.000220119999 electrons
N(Total)           :      156.000440239998 electrons
E(X)               :     -102.535301221422 Eh       
E(C)               :       -6.265102838688 Eh       
E(XC)              :     -108.800404060111 Eh       
DFET-embed. en.    :        0.000000000000 Eh       

---------------
SCF CONVERGENCE
---------------

  Last Energy change         ...   -2.3874e-11  Tolerance :   1.0000e-10
  Last MAX-Density change    ...    1.1102e-15  Tolerance :   1.0000e-05
  Last RMS-Density change    ...    2.0847e-17  Tolerance :   1.0000e-06
  Last Orbital Gradient      ...    2.0470e-07  Tolerance :   1.0000e-06
  Last Orbital Rotation      ...    7.4055e-07  Tolerance :   1.0000e-06

             **** THE GBW FILE WAS UPDATED (pristine_coronene.gbw) ****
             **** DENSITY pristine_coronene.scfp WAS UPDATED ****
             **** ENERGY FILE WAS UPDATED (pristine_coronene.en.tmp) ****
             **** THE GBW FILE WAS UPDATED (pristine_coronene.gbw) ****
             **** DENSITY pristine_coronene.scfp WAS UPDATED ****
----------------
ORBITAL ENERGIES
----------------

  NO   OCC          E(Eh)            E(eV) 
   0   2.0000     -10.182495      -277.0798 
   1   2.0000     -10.182291      -277.0742 
   2   2.0000     -10.182291      -277.0742 
   3   2.0000     -10.181829      -277.0616 
   4   2.0000     -10.181828      -277.0616 
   5   2.0000     -10.181600      -277.0554 
   6   2.0000     -10.180300      -277.0200 
   7   2.0000     -10.180299      -277.0200 
   8   2.0000     -10.180298      -277.0200 
   9   2.0000     -10.180297      -277.0200 
  10   2.0000     -10.180294      -277.0199 
  11   2.0000     -10.180294      -277.0199 
  12   2.0000     -10.175854      -276.8991 
  13   2.0000     -10.175844      -276.8988 
  14   2.0000     -10.175843      -276.8988 
  15   2.0000     -10.175820      -276.8981 
  16   2.0000     -10.175819      -276.8981 
  17   2.0000     -10.175802      -276.8976 
  18   2.0000     -10.175327      -276.8847 
  19   2.0000     -10.175317      -276.8844 
  20   2.0000     -10.175316      -276.8844 
  21   2.0000     -10.175300      -276.8840 
  22   2.0000     -10.175299      -276.8839 
  23   2.0000     -10.175294      -276.8838 
  24   2.0000      -0.913394       -24.8547 
  25   2.0000      -0.875686       -23.8286 
  26   2.0000      -0.875686       -23.8286 
  27   2.0000      -0.827370       -22.5139 
  28   2.0000      -0.827368       -22.5138 
  29   2.0000      -0.810921       -22.0663 
  30   2.0000      -0.773143       -21.0383 
  31   2.0000      -0.769895       -20.9499 
  32   2.0000      -0.745963       -20.2987 
  33   2.0000      -0.745960       -20.2986 
  34   2.0000      -0.712534       -19.3890 
  35   2.0000      -0.712529       -19.3889 
  36   2.0000      -0.641429       -17.4542 
  37   2.0000      -0.641426       -17.4541 
  38   2.0000      -0.634825       -17.2745 
  39   2.0000      -0.634824       -17.2744 
  40   2.0000      -0.625843       -17.0301 
  41   2.0000      -0.565413       -15.3857 
  42   2.0000      -0.559366       -15.2211 
  43   2.0000      -0.542315       -14.7571 
  44   2.0000      -0.542314       -14.7571 
  45   2.0000      -0.540851       -14.7173 
  46   2.0000      -0.518999       -14.1227 
  47   2.0000      -0.479235       -13.0406 
  48   2.0000      -0.479230       -13.0405 
  49   2.0000      -0.460455       -12.5296 
  50   2.0000      -0.460454       -12.5296 
  51   2.0000      -0.457731       -12.4555 
  52   2.0000      -0.457726       -12.4554 
  53   2.0000      -0.432393       -11.7660 
  54   2.0000      -0.428453       -11.6588 
  55   2.0000      -0.426164       -11.5965 
  56   2.0000      -0.426157       -11.5963 
  57   2.0000      -0.420038       -11.4298 
  58   2.0000      -0.397788       -10.8244 
  59   2.0000      -0.397785       -10.8243 
  60   2.0000      -0.388785       -10.5794 
  61   2.0000      -0.388784       -10.5793 
  62   2.0000      -0.383923       -10.4471 
  63   2.0000      -0.382049       -10.3961 
  64   2.0000      -0.365860        -9.9556 
  65   2.0000      -0.365857        -9.9555 
  66   2.0000      -0.355166        -9.6646 
  67   2.0000      -0.333580        -9.0772 
  68   2.0000      -0.333579        -9.0771 
  69   2.0000      -0.321819        -8.7572 
  70   2.0000      -0.321816        -8.7570 
  71   2.0000      -0.317837        -8.6488 
  72   2.0000      -0.274958        -7.4820 
  73   2.0000      -0.266174        -7.2430 
  74   2.0000      -0.251986        -6.8569 
  75   2.0000      -0.251985        -6.8569 
  76   2.0000      -0.203000        -5.5239 
  77   2.0000      -0.202997        -5.5238 
  78   0.0000      -0.058691        -1.5971 
  79   0.0000      -0.058687        -1.5970 
  80   0.0000      -0.021007        -0.5716 
  81   0.0000      -0.021007        -0.5716 
  82   0.0000       0.006275         0.1708 
  83   0.0000       0.013470         0.3665 
  84   0.0000       0.048002         1.3062 
  85   0.0000       0.056153         1.5280 
  86   0.0000       0.056175         1.5286 
  87   0.0000       0.059208         1.6111 
  88   0.0000       0.069860         1.9010 
  89   0.0000       0.069873         1.9013 
  90   0.0000       0.087222         2.3734 
  91   0.0000       0.088805         2.4165 
  92   0.0000       0.089672         2.4401 
  93   0.0000       0.089677         2.4402 
  94   0.0000       0.111153         3.0246 
  95   0.0000       0.111158         3.0248 
  96   0.0000       0.143649         3.9089 
  97   0.0000       0.143652         3.9090 
  98   0.0000       0.167793         4.5659 
  99   0.0000       0.176178         4.7941 
 100   0.0000       0.176178         4.7941 
 101   0.0000       0.200536         5.4569 
 102   0.0000       0.228438         6.2161 
 103   0.0000       0.228444         6.2163 
 104   0.0000       0.236705         6.4411 
 105   0.0000       0.252215         6.8631 
 106   0.0000       0.252233         6.8636 
 107   0.0000       0.260457         7.0874 
 108   0.0000       0.269128         7.3234 
 109   0.0000       0.271929         7.3996 
 110   0.0000       0.271936         7.3998 
 111   0.0000       0.275944         7.5088 
 112   0.0000       0.275949         7.5090 
 113   0.0000       0.301196         8.1960 
 114   0.0000       0.301200         8.1961 
 115   0.0000       0.310073         8.4375 
 116   0.0000       0.310094         8.4381 
 117   0.0000       0.323111         8.7923 
 118   0.0000       0.357106         9.7173 
 119   0.0000       0.360946         9.8218 
 120   0.0000       0.364817         9.9272 
 121   0.0000       0.379208        10.3188 
 122   0.0000       0.380783        10.3616 
 123   0.0000       0.380785        10.3617 
 124   0.0000       0.382292        10.4027 
 125   0.0000       0.382300        10.4029 
 126   0.0000       0.384115        10.4523 
 127   0.0000       0.384118        10.4524 
 128   0.0000       0.393131        10.6976 
 129   0.0000       0.396657        10.7936 
 130   0.0000       0.414146        11.2695 
 131   0.0000       0.414153        11.2697 
 132   0.0000       0.416186        11.3250 
 133   0.0000       0.416190        11.3251 
 134   0.0000       0.421918        11.4810 
 135   0.0000       0.423607        11.5269 
 136   0.0000       0.423609        11.5270 
 137   0.0000       0.427252        11.6261 
 138   0.0000       0.442564        12.0428 
 139   0.0000       0.450949        12.2710 
 140   0.0000       0.452274        12.3070 
 141   0.0000       0.452275        12.3070 
 142   0.0000       0.452583        12.3154 
 143   0.0000       0.453662        12.3448 
 144   0.0000       0.462399        12.5825 
 145   0.0000       0.462409        12.5828 
 146   0.0000       0.469258        12.7691 
 147   0.0000       0.473287        12.8788 
 148   0.0000       0.477502        12.9935 
 149   0.0000       0.477510        12.9937 
 150   0.0000       0.481149        13.0927 
 151   0.0000       0.481151        13.0928 
 152   0.0000       0.502939        13.6857 
 153   0.0000       0.502958        13.6862 
 154   0.0000       0.505492        13.7551 
 155   0.0000       0.505496        13.7552 
 156   0.0000       0.511516        13.9191 
 157   0.0000       0.527750        14.3608 
 158   0.0000       0.527754        14.3609 
 159   0.0000       0.531263        14.4564 
 160   0.0000       0.537737        14.6326 
 161   0.0000       0.537743        14.6327 
 162   0.0000       0.543202        14.7813 
 163   0.0000       0.561014        15.2660 
 164   0.0000       0.561039        15.2667 
 165   0.0000       0.578352        15.7378 
 166   0.0000       0.578353        15.7378 
 167   0.0000       0.590315        16.0633 
 168   0.0000       0.607586        16.5332 
 169   0.0000       0.607621        16.5342 
 170   0.0000       0.617010        16.7897 
 171   0.0000       0.625691        17.0259 
 172   0.0000       0.633015        17.2252 
 173   0.0000       0.637174        17.3384 
 174   0.0000       0.637200        17.3391 
 175   0.0000       0.642673        17.4880 
 176   0.0000       0.655166        17.8280 
 177   0.0000       0.655172        17.8281 
 178   0.0000       0.665428        18.1072 
 179   0.0000       0.665436        18.1074 
 180   0.0000       0.684027        18.6133 
 181   0.0000       0.684778        18.6338 
 182   0.0000       0.684807        18.6345 
 183   0.0000       0.708099        19.2683 
 184   0.0000       0.736742        20.0478 
 185   0.0000       0.736748        20.0479 
 186   0.0000       0.751460        20.4483 
 187   0.0000       0.751466        20.4484 
 188   0.0000       0.754081        20.5196 
 189   0.0000       0.754087        20.5198 
 190   0.0000       0.754396        20.5282 
 191   0.0000       0.754404        20.5284 
 192   0.0000       0.788914        21.4675 
 193   0.0000       0.796714        21.6797 
 194   0.0000       0.809019        22.0145 
 195   0.0000       0.809032        22.0149 
 196   0.0000       0.814950        22.1759 
 197   0.0000       0.834662        22.7123 
 198   0.0000       0.834868        22.7179 
 199   0.0000       0.834872        22.7180 
 200   0.0000       0.840865        22.8811 
 201   0.0000       0.842276        22.9195 
 202   0.0000       0.842284        22.9197 
 203   0.0000       0.875402        23.8209 
 204   0.0000       0.880178        23.9509 
 205   0.0000       0.880181        23.9509 
 206   0.0000       0.881631        23.9904 
 207   0.0000       0.889926        24.2161 
 208   0.0000       0.907553        24.6958 
 209   0.0000       0.907558        24.6959 
 210   0.0000       0.924659        25.1613 
 211   0.0000       0.941262        25.6130 
 212   0.0000       0.950363        25.8607 
 213   0.0000       0.961746        26.1704 
 214   0.0000       0.983634        26.7661 
 215   0.0000       0.983658        26.7667 
 216   0.0000       0.989562        26.9274 
 217   0.0000       0.989573        26.9276 
 218   0.0000       1.005863        27.3709 
 219   0.0000       1.005876        27.3713 
 220   0.0000       1.006457        27.3871 
 221   0.0000       1.006489        27.3879 
 222   0.0000       1.023925        27.8624 
 223   0.0000       1.023930        27.8626 
 224   0.0000       1.052753        28.6469 
 225   0.0000       1.079131        29.3646 
 226   0.0000       1.083972        29.4964 
 227   0.0000       1.124800        30.6074 
 228   0.0000       1.124807        30.6076 
 229   0.0000       1.127032        30.6681 
 230   0.0000       1.127058        30.6688 
 231   0.0000       1.133699        30.8495 
 232   0.0000       1.133705        30.8497 
 233   0.0000       1.139280        31.0014 
 234   0.0000       1.139284        31.0015 
 235   0.0000       1.151034        31.3212 
 236   0.0000       1.162096        31.6222 
 237   0.0000       1.162170        31.6242 
 238   0.0000       1.165423        31.7128 
 239   0.0000       1.165462        31.7138 
 240   0.0000       1.168562        31.7982 
 241   0.0000       1.173055        31.9204 
 242   0.0000       1.211376        32.9632 
 243   0.0000       1.211383        32.9634 
 244   0.0000       1.221374        33.2353 
 245   0.0000       1.221380        33.2354 
 246   0.0000       1.279957        34.8294 
 247   0.0000       1.280008        34.8308 
 248   0.0000       1.299237        35.3540 
 249   0.0000       1.299251        35.3544 
 250   0.0000       1.302569        35.4447 
 251   0.0000       1.312350        35.7109 
 252   0.0000       1.322123        35.9768 
 253   0.0000       1.367993        37.2250 
 254   0.0000       1.368012        37.2255 
 255   0.0000       1.381703        37.5980 
 256   0.0000       1.402042        38.1515 
 257   0.0000       1.402102        38.1531 
 258   0.0000       1.405079        38.2341 
 259   0.0000       1.451835        39.5064 
 260   0.0000       1.453079        39.5403 
 261   0.0000       1.455130        39.5961 
 262   0.0000       1.455154        39.5968 
 263   0.0000       1.461023        39.7565 
 264   0.0000       1.461051        39.7572 
 265   0.0000       1.477909        40.2159 
 266   0.0000       1.477913        40.2161 
 267   0.0000       1.499435        40.8017 
 268   0.0000       1.507360        41.0174 
 269   0.0000       1.507373        41.0177 
 270   0.0000       1.514422        41.2095 
 271   0.0000       1.516590        41.2685 
 272   0.0000       1.545472        42.0544 
 273   0.0000       1.545480        42.0547 
 274   0.0000       1.550324        42.1865 
 275   0.0000       1.550344        42.1870 
 276   0.0000       1.575315        42.8665 
 277   0.0000       1.584002        43.1029 
 278   0.0000       1.584020        43.1034 
 279   0.0000       1.649538        44.8862 
 280   0.0000       1.659846        45.1667 
 281   0.0000       1.659858        45.1670 
 282   0.0000       1.662608        45.2419 
 283   0.0000       1.662626        45.2423 
 284   0.0000       1.697796        46.1994 
 285   0.0000       1.700411        46.2705 
 286   0.0000       1.720971        46.8300 
 287   0.0000       1.775926        48.3254 
 288   0.0000       1.775941        48.3258 
 289   0.0000       1.779771        48.4300 
 290   0.0000       1.779803        48.4309 
 291   0.0000       1.800857        49.0038 
 292   0.0000       1.800884        49.0045 
 293   0.0000       1.830437        49.8087 
 294   0.0000       1.834069        49.9076 
 295   0.0000       1.834076        49.9077 
 296   0.0000       1.852347        50.4049 
 297   0.0000       1.852361        50.4053 
 298   0.0000       1.861553        50.6554 
 299   0.0000       1.861554        50.6555 
 300   0.0000       1.882859        51.2352 
 301   0.0000       1.883603        51.2554 
 302   0.0000       1.883613        51.2557 
 303   0.0000       1.885022        51.2941 
 304   0.0000       1.885023        51.2941 
 305   0.0000       1.886455        51.3331 
 306   0.0000       1.915436        52.1217 
 307   0.0000       1.922463        52.3129 
 308   0.0000       1.934324        52.6356 
 309   0.0000       1.954089        53.1735 
 310   0.0000       1.970595        53.6226 
 311   0.0000       1.970605        53.6229 
 312   0.0000       1.986478        54.0548 
 313   0.0000       2.000667        54.4409 
 314   0.0000       2.000669        54.4410 
 315   0.0000       2.020774        54.9881 
 316   0.0000       2.020791        54.9885 
 317   0.0000       2.038785        55.4781 
 318   0.0000       2.040632        55.5284 
 319   0.0000       2.060365        56.0654 
 320   0.0000       2.060388        56.0660 
 321   0.0000       2.079325        56.5813 
 322   0.0000       2.079336        56.5816 
 323   0.0000       2.112391        57.4811 
 324   0.0000       2.113966        57.5239 
 325   0.0000       2.113992        57.5247 
 326   0.0000       2.175393        59.1955 
 327   0.0000       2.176632        59.2292 
 328   0.0000       2.176667        59.2301 
 329   0.0000       2.216373        60.3106 
 330   0.0000       2.216383        60.3108 
 331   0.0000       2.218195        60.3602 
 332   0.0000       2.250941        61.2512 
 333   0.0000       2.253720        61.3268 
 334   0.0000       2.253722        61.3269 
 335   0.0000       2.301760        62.6341 
 336   0.0000       2.301765        62.6342 
 337   0.0000       2.343351        63.7658 
 338   0.0000       2.360406        64.2299 
 339   0.0000       2.360410        64.2300 
 340   0.0000       2.382729        64.8374 
 341   0.0000       2.382743        64.8377 
 342   0.0000       2.407633        65.5150 
 343   0.0000       2.416110        65.7457 
 344   0.0000       2.416112        65.7457 
 345   0.0000       2.455878        66.8278 
 346   0.0000       2.455911        66.8287 
 347   0.0000       2.471074        67.2413 
 348   0.0000       2.487333        67.6838 
 349   0.0000       2.499146        68.0052 
 350   0.0000       2.505717        68.1840 
 351   0.0000       2.533230        68.9327 
 352   0.0000       2.538540        69.0772 
 353   0.0000       2.538547        69.0774 
 354   0.0000       2.539272        69.0971 
 355   0.0000       2.539303        69.0980 
 356   0.0000       2.582142        70.2637 
 357   0.0000       2.584087        70.3166 
 358   0.0000       2.598386        70.7057 
 359   0.0000       2.598395        70.7059 
 360   0.0000       2.604782        70.8797 
 361   0.0000       2.604803        70.8803 
 362   0.0000       2.632823        71.6428 
 363   0.0000       2.656159        72.2778 
 364   0.0000       2.664854        72.5144 
 365   0.0000       2.664892        72.5154 
 366   0.0000       2.714049        73.8530 
 367   0.0000       2.769078        75.3505 
 368   0.0000       2.772946        75.4557 
 369   0.0000       2.772947        75.4557 
 370   0.0000       2.781474        75.6878 
 371   0.0000       2.781490        75.6882 
 372   0.0000       2.812361        76.5282 
[...]
     94      -0.295923  -0.353699  -0.213686  -0.379886  -0.117237  -0.273707
     95       0.000009   0.000011   0.000007   0.000012   0.000004   0.000009
     96      -0.005491  -0.006118   0.003583   0.004515  -0.004105   0.004042
     97       0.289143   0.293641  -0.285760  -0.351227   0.197718  -0.279705
     98      -0.000009  -0.000009   0.000009   0.000011  -0.000006   0.000009
     99       0.254516   0.301050  -0.186556  -0.267149   0.221914  -0.244778
    100       0.149198   0.178085  -0.108117  -0.156808   0.132450  -0.144967
    101       0.000007   0.000008  -0.000005  -0.000007   0.000006  -0.000007
    102      -0.232143   0.074792   0.329794   0.008452   0.358680  -0.261318
    103      -0.139940   0.042962   0.198344   0.006724   0.214222  -0.155893
    104      -0.000006   0.000002   0.000009   0.000000   0.000010  -0.000007
    105      -0.235037  -0.005759   0.343709   0.075454   0.356552  -0.264432
    106       0.133818   0.001310  -0.194740  -0.040957  -0.201387   0.148947
    107      -0.000015  -0.000000   0.000021   0.000005   0.000022  -0.000016


-----------
IR SPECTRUM
-----------

 Mode   freq       eps      Int      T**2         TX        TY        TZ
       cm**-1   L/(mol*cm) km/mol    a.u.
----------------------------------------------------------------------------
  6:     87.91   0.000000    0.00  0.000000  (-0.000001  0.000003 -0.000115)
  7:     87.94   0.000000    0.00  0.000000  ( 0.000004  0.000005 -0.000110)
  8:    124.40   0.001380    6.97  0.003461  (-0.000004  0.000001 -0.058831)
  9:    164.51   0.000000    0.00  0.000000  ( 0.000000 -0.000000 -0.000000)
 10:    225.63   0.000000    0.00  0.000000  ( 0.000000 -0.000000  0.000000)
 11:    294.93   0.000000    0.00  0.000000  ( 0.000000  0.000000  0.000000)
 12:    294.97   0.000000    0.00  0.000000  ( 0.000000 -0.000000  0.000000)
 13:    300.73   0.000000    0.00  0.000000  (-0.000002  0.000002 -0.000012)
 14:    300.82   0.000000    0.00  0.000000  ( 0.000002  0.000001  0.000022)
 15:    371.96   0.000000    0.00  0.000000  (-0.000000 -0.000000  0.000000)
 16:    372.00   0.000000    0.00  0.000000  ( 0.000000  0.000000 -0.000000)
 17:    387.16   0.000713    3.61  0.000575  (-0.004179  0.023612 -0.000001)
 18:    387.20   0.000713    3.60  0.000575  ( 0.023605  0.004170  0.000001)
 19:    454.95   0.000000    0.00  0.000000  (-0.000000  0.000000  0.000000)
 20:    455.06   0.000000    0.00  0.000000  ( 0.000000  0.000000  0.000000)
 21:    483.61   0.000000    0.00  0.000000  (-0.000012 -0.000011  0.000000)
 22:    492.23   0.000000    0.00  0.000000  (-0.000000  0.000000 -0.000000)
 23:    500.95   0.000000    0.00  0.000000  ( 0.000000 -0.000000 -0.000000)
 24:    501.02   0.000000    0.00  0.000000  (-0.000000 -0.000000 -0.000000)
 25:    528.70   0.000000    0.00  0.000000  (-0.000000 -0.000001  0.000014)
 26:    551.02   0.000000    0.00  0.000000  (-0.000001 -0.000000  0.000164)
 27:    551.10   0.000000    0.00  0.000000  ( 0.000002  0.000003  0.000011)
 28:    561.70   0.007769   39.26  0.004316  (-0.000000 -0.000001 -0.065698)
 29:    568.43   0.000000    0.00  0.000000  ( 0.000002 -0.000004  0.000000)
 30:    619.27   0.000000    0.00  0.000000  (-0.000000  0.000001 -0.000000)
 31:    649.47   0.000000    0.00  0.000000  ( 0.000000  0.000000  0.000000)
 32:    668.62   0.000000    0.00  0.000000  (-0.000000  0.000001  0.000001)
 33:    668.66   0.000000    0.00  0.000000  ( 0.000001  0.000000  0.000000)
 34:    683.57   0.000000    0.00  0.000000  ( 0.000001 -0.000008  0.000000)
 35:    694.07   0.000000    0.00  0.000000  (-0.000000 -0.000000 -0.000000)
 36:    694.09   0.000000    0.00  0.000000  ( 0.000000 -0.000000  0.000000)
 37:    764.72   0.000000    0.00  0.000000  (-0.000000 -0.000000 -0.000000)
 38:    769.87   0.000000    0.00  0.000000  ( 0.000000  0.000002 -0.000050)
 39:    769.91   0.000000    0.00  0.000000  ( 0.000002  0.000002 -0.000005)
 40:    786.64   0.000000    0.00  0.000000  (-0.000001  0.000003 -0.000000)
 41:    789.61   0.001264    6.39  0.000500  ( 0.003020  0.022149 -0.000001)
 42:    789.67   0.001261    6.37  0.000498  ( 0.022117 -0.003020  0.000001)
 43:    811.32   0.000000    0.00  0.000000  ( 0.000002 -0.000001 -0.000016)
 44:    811.33   0.000000    0.00  0.000000  (-0.000000 -0.000000 -0.000025)
 45:    830.45   0.000000    0.00  0.000000  ( 0.000026  0.000231 -0.000000)
 46:    830.48   0.000000    0.00  0.000000  (-0.000275  0.000029 -0.000001)
 47:    845.24   0.000000    0.00  0.000000  ( 0.000000 -0.000000  0.000001)
 48:    845.28   0.000000    0.00  0.000000  ( 0.000000  0.000000  0.000000)
 49:    865.78   0.033910  171.37  0.012223  (-0.000000 -0.000001 -0.110555)
 50:    935.99   0.000000    0.00  0.000000  (-0.000001 -0.000002 -0.000011)
 51:    942.67   0.000000    0.00  0.000000  (-0.000000 -0.000000 -0.000001)
 52:    942.70   0.000000    0.00  0.000000  ( 0.000000  0.000000 -0.000001)
 53:    946.37   0.000000    0.00  0.000000  ( 0.000000  0.000000  0.000000)
 54:    953.57   0.000000    0.00  0.000000  ( 0.000003  0.000005 -0.000025)
 55:    953.60   0.000000    0.00  0.000000  ( 0.000000  0.000002  0.000024)
 56:    962.32   0.000000    0.00  0.000000  ( 0.000000  0.000001 -0.000000)
 57:   1015.74   0.000000    0.00  0.000000  (-0.000000  0.000000 -0.000000)
 58:   1015.81   0.000000    0.00  0.000000  (-0.000000  0.000000 -0.000000)
 59:   1055.17   0.000000    0.00  0.000000  (-0.000000  0.000000 -0.000000)
 60:   1163.32   0.000000    0.00  0.000000  ( 0.000078  0.000198 -0.000000)
 61:   1164.88   0.001765    8.92  0.000473  (-0.018073 -0.012085 -0.000000)
 62:   1164.96   0.001767    8.93  0.000473  ( 0.012045 -0.018115  0.000001)
 63:   1187.04   0.000000    0.00  0.000000  ( 0.000000  0.000000 -0.000000)
 64:   1187.08   0.000000    0.00  0.000000  ( 0.000000 -0.000000  0.000000)
 65:   1190.63   0.000000    0.00  0.000000  ( 0.000006  0.000012 -0.000000)
 66:   1219.37   0.000000    0.00  0.000000  ( 0.000024  0.000002  0.000000)
 67:   1242.92   0.000152    0.77  0.000038  ( 0.000124  0.006177 -0.000000)
 68:   1242.98   0.000150    0.76  0.000038  (-0.006142  0.000095 -0.000000)
 69:   1252.95   0.000000    0.00  0.000000  (-0.000000 -0.000000  0.000000)
 70:   1255.43   0.000000    0.00  0.000000  (-0.000000 -0.000000  0.000000)
 71:   1255.44   0.000000    0.00  0.000000  (-0.000000  0.000000  0.000000)
 72:   1263.38   0.000000    0.00  0.000000  ( 0.000000  0.000000  0.000000)
 73:   1345.27   0.004768   24.09  0.001106  ( 0.032756  0.005746  0.000001)
 74:   1345.29   0.004760   24.06  0.001104  ( 0.005770 -0.032726  0.000001)
 75:   1376.78   0.000000    0.00  0.000000  (-0.000000 -0.000000  0.000000)
 76:   1378.09   0.000000    0.00  0.000000  (-0.000041  0.000001  0.000000)
 77:   1428.82   0.000000    0.00  0.000000  ( 0.000001 -0.000001  0.000000)
 78:   1428.84   0.000076    0.39  0.000017  (-0.003896 -0.001222 -0.000000)
 79:   1428.86   0.000000    0.00  0.000000  (-0.000004  0.000006 -0.000000)
 80:   1428.88   0.000077    0.39  0.000017  (-0.001214  0.003905 -0.000000)
 81:   1453.64   0.000000    0.00  0.000000  (-0.000009  0.000040 -0.000000)
 82:   1470.52   0.000000    0.00  0.000000  ( 0.000000  0.000000 -0.000000)
 83:   1470.56   0.000000    0.00  0.000000  (-0.000000 -0.000000  0.000000)
 84:   1488.52   0.000000    0.00  0.000000  (-0.000000 -0.000000  0.000000)
 85:   1488.55   0.000000    0.00  0.000000  ( 0.000000 -0.000000 -0.000000)
 86:   1522.76   0.000000    0.00  0.000000  ( 0.000022 -0.000001  0.000000)
 87:   1540.08   0.000472    2.38  0.000096  (-0.005258  0.008245 -0.000000)
 88:   1540.10   0.000473    2.39  0.000096  (-0.008270 -0.005237 -0.000000)
 89:   1579.51   0.000000    0.00  0.000000  (-0.000000 -0.000000  0.000000)
 90:   1588.33   0.000000    0.00  0.000000  ( 0.000004 -0.000016  0.000000)
 91:   1644.65   0.000000    0.00  0.000000  ( 0.000000  0.000000 -0.000000)
 92:   1657.65   0.000000    0.00  0.000000  (-0.000000  0.000000  0.000000)
 93:   1657.68   0.000000    0.00  0.000000  ( 0.000001  0.000001 -0.000000)
 94:   1658.87   0.002341   11.83  0.000440  (-0.013926 -0.015698 -0.000000)
 95:   1658.90   0.002342   11.84  0.000441  (-0.015737  0.013889 -0.000001)
 96:   3154.13   0.000000    0.00  0.000000  ( 0.000001  0.000000 -0.000000)
 97:   3154.97   0.001740    8.80  0.000172  (-0.013051 -0.001356 -0.000001)
 98:   3155.23   0.001775    8.97  0.000176  ( 0.001322 -0.013185  0.000000)
 99:   3156.95   0.000000    0.00  0.000000  (-0.000001 -0.000001 -0.000000)
100:   3157.18   0.000000    0.00  0.000000  (-0.000000 -0.000000 -0.000000)
101:   3158.14   0.000002    0.01  0.000000  ( 0.000142  0.000370  0.000000)
102:   3172.22   0.000054    0.27  0.000005  (-0.002257  0.000482 -0.000000)
103:   3173.41   0.000000    0.00  0.000000  ( 0.000001 -0.000003  0.000000)
104:   3173.60   0.000000    0.00  0.000000  ( 0.000001 -0.000001  0.000000)
105:   3175.48   0.028809  145.59  0.002831  (-0.006452  0.052816 -0.000002)
106:   3175.71   0.028652  144.79  0.002815  (-0.052663 -0.006487 -0.000002)
107:   3177.21   0.000000    0.00  0.000000  (-0.000004  0.000003 -0.000000)

* The epsilon (eps) is given for a Dirac delta lineshape.
** The dipole moment derivative (T) already includes vibrational overlap.

The first frequency considered to be a vibration is 6
The total number of vibrations considered is 102


--------------------------
THERMOCHEMISTRY AT 298.15K
--------------------------

Temperature         ... 298.15 K
Pressure            ... 1.00 atm
Total Mass          ... 300.36 AMU

Throughout the following assumptions are being made:
  (1) The electronic state is orbitally nondegenerate
  (2) There are no thermally accessible electronically excited states
  (3) Hindered rotations indicated by low frequency modes are not
      treated as such but are treated as vibrations and this may
      cause some error
  (4) All equations used are the standard statistical mechanics
      equations for an ideal gas
  (5) All vibrations are strictly harmonic

freq.      87.91  E(vib)   ...       0.48 
freq.      87.94  E(vib)   ...       0.48 
freq.     124.40  E(vib)   ...       0.43 
freq.     164.51  E(vib)   ...       0.39 
freq.     225.63  E(vib)   ...       0.33 
freq.     294.93  E(vib)   ...       0.27 
freq.     294.97  E(vib)   ...       0.27 
freq.     300.73  E(vib)   ...       0.26 
freq.     300.82  E(vib)   ...       0.26 
freq.     371.96  E(vib)   ...       0.21 
freq.     372.00  E(vib)   ...       0.21 
freq.     387.16  E(vib)   ...       0.20 
freq.     387.20  E(vib)   ...       0.20 
freq.     454.95  E(vib)   ...       0.16 
freq.     455.06  E(vib)   ...       0.16 
freq.     483.61  E(vib)   ...       0.15 
freq.     492.23  E(vib)   ...       0.14 
freq.     500.95  E(vib)   ...       0.14 
freq.     501.02  E(vib)   ...       0.14 
freq.     528.70  E(vib)   ...       0.13 
freq.     551.02  E(vib)   ...       0.12 
freq.     551.10  E(vib)   ...       0.12 
freq.     561.70  E(vib)   ...       0.11 
freq.     568.43  E(vib)   ...       0.11 
freq.     619.27  E(vib)   ...       0.09 
freq.     649.47  E(vib)   ...       0.08 
freq.     668.62  E(vib)   ...       0.08 
freq.     668.66  E(vib)   ...       0.08 
freq.     683.57  E(vib)   ...       0.07 
freq.     694.07  E(vib)   ...       0.07 
freq.     694.09  E(vib)   ...       0.07 
freq.     764.72  E(vib)   ...       0.06 
freq.     769.87  E(vib)   ...       0.05 
freq.     769.91  E(vib)   ...       0.05 
freq.     786.64  E(vib)   ...       0.05 
freq.     789.61  E(vib)   ...       0.05 
freq.     789.67  E(vib)   ...       0.05 
freq.     811.32  E(vib)   ...       0.05 
freq.     811.33  E(vib)   ...       0.05 
freq.     830.45  E(vib)   ...       0.04 
freq.     830.48  E(vib)   ...       0.04 
freq.     845.24  E(vib)   ...       0.04 
freq.     845.28  E(vib)   ...       0.04 
freq.     865.78  E(vib)   ...       0.04 
freq.     935.99  E(vib)   ...       0.03 
freq.     942.67  E(vib)   ...       0.03 
freq.     942.70  E(vib)   ...       0.03 
freq.     946.37  E(vib)   ...       0.03 
freq.     953.57  E(vib)   ...       0.03 
freq.     953.60  E(vib)   ...       0.03 
freq.     962.32  E(vib)   ...       0.03 
freq.    1015.74  E(vib)   ...       0.02 
freq.    1015.81  E(vib)   ...       0.02 
freq.    1055.17  E(vib)   ...       0.02 
freq.    1163.32  E(vib)   ...       0.01 
freq.    1164.88  E(vib)   ...       0.01 
freq.    1164.96  E(vib)   ...       0.01 
freq.    1187.04  E(vib)   ...       0.01 
freq.    1187.08  E(vib)   ...       0.01 
freq.    1190.63  E(vib)   ...       0.01 
freq.    1219.37  E(vib)   ...       0.01 
freq.    1242.92  E(vib)   ...       0.01 
freq.    1242.98  E(vib)   ...       0.01 
freq.    1252.95  E(vib)   ...       0.01 
freq.    1255.43  E(vib)   ...       0.01 
freq.    1255.44  E(vib)   ...       0.01 
freq.    1263.38  E(vib)   ...       0.01 
freq.    1345.27  E(vib)   ...       0.01 
freq.    1345.29  E(vib)   ...       0.01 
freq.    1376.78  E(vib)   ...       0.01 
freq.    1378.09  E(vib)   ...       0.01 
freq.    1428.82  E(vib)   ...       0.00 
freq.    1428.84  E(vib)   ...       0.00 
freq.    1428.86  E(vib)   ...       0.00 
freq.    1428.88  E(vib)   ...       0.00 
freq.    1453.64  E(vib)   ...       0.00 
freq.    1470.52  E(vib)   ...       0.00 
freq.    1470.56  E(vib)   ...       0.00 
freq.    1488.52  E(vib)   ...       0.00 
freq.    1488.55  E(vib)   ...       0.00 
freq.    1522.76  E(vib)   ...       0.00 
freq.    1540.08  E(vib)   ...       0.00 
freq.    1540.10  E(vib)   ...       0.00 
freq.    1579.51  E(vib)   ...       0.00 
freq.    1588.33  E(vib)   ...       0.00 
freq.    1644.65  E(vib)   ...       0.00 
freq.    1657.65  E(vib)   ...       0.00 
freq.    1657.68  E(vib)   ...       0.00 
freq.    1658.87  E(vib)   ...       0.00 
freq.    1658.90  E(vib)   ...       0.00 
freq.    3154.13  E(vib)   ...       0.00 
freq.    3154.97  E(vib)   ...       0.00 
freq.    3155.23  E(vib)   ...       0.00 
freq.    3156.95  E(vib)   ...       0.00 
freq.    3157.18  E(vib)   ...       0.00 
freq.    3158.14  E(vib)   ...       0.00 
freq.    3172.22  E(vib)   ...       0.00 
freq.    3173.41  E(vib)   ...       0.00 
freq.    3173.60  E(vib)   ...       0.00 
freq.    3175.48  E(vib)   ...       0.00 
freq.    3175.71  E(vib)   ...       0.00 
freq.    3177.21  E(vib)   ...       0.00 

------------
INNER ENERGY
------------

The inner energy is: U= E(el) + E(ZPE) + E(vib) + E(rot) + E(trans)
    E(el)   - is the total energy from the electronic structure calculation
              = E(kin-el) + E(nuc-el) + E(el-el) + E(nuc-nuc)
    E(ZPE)  - the the zero temperature vibrational energy from the frequency calculation
    E(vib)  - the the finite temperature correction to E(ZPE) due to population
              of excited vibrational states
    E(rot)  - is the rotational thermal energy
    E(trans)- is the translational thermal energy

Summary of contributions to the inner energy U:
Electronic energy                ...   -921.60042803 Eh
Zero point energy                ...      0.27865789 Eh     174.86 kcal/mol
Thermal vibrational correction   ...      0.01135379 Eh       7.12 kcal/mol
Thermal rotational correction    ...      0.00141627 Eh       0.89 kcal/mol
Thermal translational correction ...      0.00141627 Eh       0.89 kcal/mol
-----------------------------------------------------------------------
Total thermal energy                   -921.30758380 Eh


Summary of corrections to the electronic energy:
(perhaps to be used in another calculation)
Total thermal correction                  0.01418634 Eh       8.90 kcal/mol
Non-thermal (ZPE) correction              0.27865789 Eh     174.86 kcal/mol
-----------------------------------------------------------------------
Total correction                          0.29284423 Eh     183.76 kcal/mol


--------
ENTHALPY
--------

The enthalpy is H = U + kB*T
                kB is Boltzmann's constant
Total free energy                 ...   -921.30758380 Eh 
Thermal Enthalpy correction       ...      0.00094421 Eh       0.59 kcal/mol
-----------------------------------------------------------------------
Total Enthalpy                    ...   -921.30663959 Eh


Note: Rotational entropy computed according to Herzberg 
Infrared and Raman Spectra, Chapter V,1, Van Nostrand Reinhold, 1945 
Point Group:  C2h, Symmetry Number:   2  
Rotational constants in cm-1:     0.011153     0.011152     0.005576 

Vibrational entropy computed according to the QRRHO of S. Grimme
Chem.Eur.J. 2012 18 9955


-------
ENTROPY
-------

The entropy contributions are T*S = T*(S(el)+S(vib)+S(rot)+S(trans))
     S(el)   - electronic entropy
     S(vib)  - vibrational entropy
     S(rot)  - rotational entropy
     S(trans)- translational entropy
The entropies will be listed as multiplied by the temperature to get
units of energy

Electronic entropy                ...      0.00000000 Eh      0.00 kcal/mol
Vibrational entropy               ...      0.01787344 Eh     11.22 kcal/mol
Rotational entropy                ...      0.01555125 Eh      9.76 kcal/mol
Translational entropy             ...      0.02042887 Eh     12.82 kcal/mol
-----------------------------------------------------------------------
Final entropy term                ...      0.05385356 Eh     33.79 kcal/mol

In case the symmetry of your molecule has not been determined correctly
or in case you have a reason to use a different symmetry number we print 
out the resulting rotational entropy values for sn=1,12 :
 --------------------------------------------------------
|  sn= 1 | S(rot)=       0.01620571 Eh     10.17 kcal/mol|
|  sn= 2 | S(rot)=       0.01555125 Eh      9.76 kcal/mol|
|  sn= 3 | S(rot)=       0.01516842 Eh      9.52 kcal/mol|
|  sn= 4 | S(rot)=       0.01489680 Eh      9.35 kcal/mol|
|  sn= 5 | S(rot)=       0.01468611 Eh      9.22 kcal/mol|
|  sn= 6 | S(rot)=       0.01451396 Eh      9.11 kcal/mol|
|  sn= 7 | S(rot)=       0.01436842 Eh      9.02 kcal/mol|
|  sn= 8 | S(rot)=       0.01424234 Eh      8.94 kcal/mol|
|  sn= 9 | S(rot)=       0.01413113 Eh      8.87 kcal/mol|
|  sn=10 | S(rot)=       0.01403165 Eh      8.80 kcal/mol|
|  sn=11 | S(rot)=       0.01394166 Eh      8.75 kcal/mol|
|  sn=12 | S(rot)=       0.01385951 Eh      8.70 kcal/mol|
 --------------------------------------------------------


-------------------
GIBBS FREE ENERGY
-------------------

The Gibbs free energy is G = H - T*S

Total enthalpy                    ...   -921.30663959 Eh 
Total entropy correction          ...     -0.05385356 Eh    -33.79 kcal/mol
-----------------------------------------------------------------------
Final Gibbs free energy         ...   -921.36049316 Eh

For completeness - the Gibbs free energy minus the electronic energy
G-E(el)                           ...      0.23993487 Eh    150.56 kcal/mol


Timings for individual modules:

Sum of individual times         ...     5227.364 sec (=  87.123 min)
GTO integral calculation        ...        6.480 sec (=   0.108 min)   0.1 %
SCF iterations                  ...     1453.499 sec (=  24.225 min)  27.8 %
SCF Gradient evaluation         ...      444.936 sec (=   7.416 min)   8.5 %
Geometry relaxation             ...        1.186 sec (=   0.020 min)   0.0 %
Analytical frequency calculation...     3321.263 sec (=  55.354 min)  63.5 %
                             ****ORCA TERMINATED NORMALLY****
TOTAL RUN TIME: 0 days 1 hours 27 minutes 11 seconds 234 msec
