
                                 *****************
                                 * O   R   C   A *
                                 *****************

                                            #,                                       
                                            ###                                      
                                            ####                                     
                                            #####                                    
                                            ######                                   
                                           ########,                                 
                                     ,,################,,,,,                         
                               ,,#################################,,                 
                          ,,##########################################,,             
                       ,#########################################, ''#####,          
                    ,#############################################,,   '####,        
                  ,##################################################,,,,####,       
                ,###########''''           ''''###############################       
              ,#####''   ,,,,##########,,,,          '''####'''          '####       
            ,##' ,,,,###########################,,,                        '##       
           ' ,,###''''                  '''############,,,                           
         ,,##''                                '''############,,,,        ,,,,,,###''
      ,#''                                            '''#######################'''  
     '                                                          ''''####''''         
             ,#######,   #######,   ,#######,      ##                                
            ,#'     '#,  ##    ##  ,#'     '#,    #''#        ######   ,####,        
            ##       ##  ##   ,#'  ##            #'  '#       #        #'  '#        
            ##       ##  #######   ##           ,######,      #####,   #    #        
            '#,     ,#'  ##    ##  '#,     ,#' ,#      #,         ##   #,  ,#        
             '#######'   ##     ##  '#######'  #'      '#     #####' # '####'        



                  #######################################################
                  #                        -***-                        #
                  #          Department of theory and spectroscopy      #
                  #    Directorship and core code : Frank Neese         #
                  #        Max Planck Institute fuer Kohlenforschung    #
                  #                Kaiser Wilhelm Platz 1               #
                  #                 D-45470 Muelheim/Ruhr               #
                  #                      Germany                        #
                  #                                                     #
                  #                  All rights reserved                #
                  #                        -***-                        #
                  #######################################################



                         Program Version 5.0.4 -  RELEASE  -

 With contributions from (in alphabetic order):
   Daniel Aravena         : Magnetic Suceptibility
   Michael Atanasov       : Ab Initio Ligand Field Theory (pilot matlab implementation)
   Alexander A. Auer      : GIAO ZORA, VPT2 properties, NMR spectrum
   Ute Becker             : Parallelization
   Giovanni Bistoni       : ED, misc. LED, open-shell LED, HFLD
   Martin Brehm           : Molecular dynamics
   Dmytro Bykov           : SCF Hessian
   Vijay G. Chilkuri      : MRCI spin determinant printing, contributions to CSF-ICE
   Dipayan Datta          : RHF DLPNO-CCSD density
   Achintya Kumar Dutta   : EOM-CC, STEOM-CC
   Dmitry Ganyushin       : Spin-Orbit,Spin-Spin,Magnetic field MRCI
   Miquel Garcia          : C-PCM and meta-GGA Hessian, CC/C-PCM, Gaussian charge scheme
   Yang Guo               : DLPNO-NEVPT2, F12-NEVPT2, CIM, IAO-localization
   Andreas Hansen         : Spin unrestricted coupled pair/coupled cluster methods
   Benjamin Helmich-Paris : MC-RPA, TRAH-SCF, COSX integrals
   Lee Huntington         : MR-EOM, pCC
   Robert Izsak           : Overlap fitted RIJCOSX, COSX-SCS-MP3, EOM
   Marcus Kettner         : VPT2
   Christian Kollmar      : KDIIS, OOCD, Brueckner-CCSD(T), CCSD density, CASPT2, CASPT2-K
   Simone Kossmann        : Meta GGA functionals, TD-DFT gradient, OOMP2, MP2 Hessian
   Martin Krupicka        : Initial AUTO-CI
   Lucas Lang             : DCDCAS
   Marvin Lechner         : AUTO-CI (C++ implementation), FIC-MRCC
   Dagmar Lenk            : GEPOL surface, SMD
   Dimitrios Liakos       : Extrapolation schemes; Compound Job, initial MDCI parallelization
   Dimitrios Manganas     : Further ROCIS development; embedding schemes
   Dimitrios Pantazis     : SARC Basis sets
   Anastasios Papadopoulos: AUTO-CI, single reference methods and gradients
   Taras Petrenko         : DFT Hessian,TD-DFT gradient, ASA, ECA, R-Raman, ABS, FL, XAS/XES, NRVS
   Peter Pinski           : DLPNO-MP2, DLPNO-MP2 Gradient
   Christoph Reimann      : Effective Core Potentials
   Marius Retegan         : Local ZFS, SOC
   Christoph Riplinger    : Optimizer, TS searches, QM/MM, DLPNO-CCSD(T), (RO)-DLPNO pert. Triples
   Tobias Risthaus        : Range-separated hybrids, TD-DFT gradient, RPA, STAB
   Michael Roemelt        : Original ROCIS implementation
   Masaaki Saitow         : Open-shell DLPNO-CCSD energy and density
   Barbara Sandhoefer     : DKH picture change effects
   Avijit Sen             : IP-ROCIS
   Kantharuban Sivalingam : CASSCF convergence, NEVPT2, FIC-MRCI
   Bernardo de Souza      : ESD, SOC TD-DFT
   Georgi Stoychev        : AutoAux, RI-MP2 NMR, DLPNO-MP2 response
   Willem Van den Heuvel  : Paramagnetic NMR
   Boris Wezisla          : Elementary symmetry handling
   Frank Wennmohs         : Technical directorship


 We gratefully acknowledge several colleagues who have allowed us to
 interface, adapt or use parts of their codes:
   Stefan Grimme, W. Hujo, H. Kruse, P. Pracht,  : VdW corrections, initial TS optimization,
                  C. Bannwarth, S. Ehlert          DFT functionals, gCP, sTDA/sTD-DF
   Ed Valeev, F. Pavosevic, A. Kumar             : LibInt (2-el integral package), F12 methods
   Garnet Chan, S. Sharma, J. Yang, R. Olivares  : DMRG
   Ulf Ekstrom                                   : XCFun DFT Library
   Mihaly Kallay                                 : mrcc  (arbitrary order and MRCC methods)
   Jiri Pittner, Ondrej Demel                    : Mk-CCSD
   Frank Weinhold                                : gennbo (NPA and NBO analysis)
   Christopher J. Cramer and Donald G. Truhlar   : smd solvation model
   Lars Goerigk                                  : TD-DFT with DH, B97 family of functionals
   V. Asgeirsson, H. Jonsson                     : NEB implementation
   FAccTs GmbH                                   : IRC, NEB, NEB-TS, DLPNO-Multilevel, CI-OPT
                                                   MM, QMMM, 2- and 3-layer-ONIOM, Crystal-QMMM,
                                                   LR-CPCM, SF, NACMEs, symmetry and pop. for TD-DFT,
                                                   nearIR, NL-DFT gradient (VV10), updates on ESD,
                                                   ML-optimized integration grids
   S Lehtola, MJT Oliveira, MAL Marques          : LibXC Library
   Liviu Ungur et al                             : ANISO software


 Your calculation uses the libint2 library for the computation of 2-el integrals
 For citations please refer to: http://libint.valeyev.net

 Your ORCA version has been built with support for libXC version: 5.1.0
 For citations please refer to: https://tddft.org/programs/libxc/

 This ORCA versions uses:
   CBLAS   interface :  Fast vector & matrix operations
   LAPACKE interface :  Fast linear algebra routines
   Shared memory     :  Shared parallel matrices


XCFun DFT library Copyright 2009-2010 Ulf Ekstrom and contributors.
See http://admol.org/xcfun for more information.
This is free software; see the source code for copying conditions.
There is ABSOLUTELY NO WARRANTY; not even for MERCHANTABILITY or FITNESS FOR A PARTICULAR PURPOSE.
For details see the documentation.
Scientific users of this library should cite U. Ekstrom, L. Visscher, R. Bast, A. J. Thorvaldsen and K. Ruud;
J.Chem.Theor.Comp. 2010, DOI: 10.1021/ct100117s
XCFun Version 0.99 

================================================================================

----- Orbital basis set information -----
Your calculation utilizes the basis: def2-TZVP
   F. Weigend and R. Ahlrichs, Phys. Chem. Chem. Phys. 7, 3297 (2005).

----- AuxJ basis set information -----
Your calculation utilizes the auxiliary basis: def2/J
   F. Weigend, Phys. Chem. Chem. Phys. 8, 1057 (2006).

================================================================================
                                        WARNINGS
                       Please study these warnings very carefully!
================================================================================


WARNING: Geometry Optimization
  ===> : Switching off AutoStart
         For restart on a previous wavefunction, please use MOREAD

WARNING: Minnesota functionals are quite sensitive to the integration grid.
         see SE Wheeler, KN Houk, JCTC 2010, 6, 395,
             N Mardirossian, M Head-Gordon, JCTC 2016, 12, 4303.
         DEFGRID3 seems to be a minimum grid for reliable results with these functionals!
  ===> : Please increase the integration grid!


INFO   : the flag for use of the SHARK integral package has been found!

================================================================================
                                       INPUT FILE
================================================================================
NAME = eight_twelve.inp
|  1> !M062X def2-tzvp PAL4 TIGHTOPT FREQ
|  2> 
|  3> %freq
|  4> Temp 298.15,10,20,50,100,6000,8000,10000
|  5> end
|  6> 
|  7> %geom
|  8> maxiter 5000
|  9> end
| 10> 
| 11> 
| 12> * xyz 0 1
| 13>   C   2.45791983499341     -2.80268931379768     -0.00000793519644
| 14>   C   1.28608761308438     -3.49706883370209     -0.00003643606214
| 15>   C   0.03470547919465     -2.82650100714450     -0.00011895547508
| 16>   C   -1.19909611030651     -3.52926406052669     -0.00014738304165
| 17>   C   -2.38727532547159     -2.86387815648029     -0.00022974228995
| 18>   C   -2.43307513493588     -1.44447575303296     -0.00027036473986
| 19>   C   -3.65942351028343     -0.73056692575933     -0.00034869983218
| 20>   C   -3.68143184744779      0.63183680863156     -0.00038756598292
| 21>   C   -2.47654311552349      1.38171086633990     -0.00035715694906
| 22>   C   -2.47435650264592      2.81046534061019     -0.00039831731937
| 23>   C   -1.28561443050281      3.43802142880253     -0.00036151343355
| 24>   C   -0.02057223287027      2.83388218261706     -0.00029010794623
| 25>   C   1.21086686736911      3.53893902602452     -0.00025402239824
| 26>   C   2.39489324957599      2.86551829309080     -0.00018393811888
| 27>   C   2.43517090494280      1.44582754720977     -0.00014049013964
| 28>   C   3.65975900430544      0.72697243056351     -0.00006992784603
| 29>   C   3.67546036802878     -0.63516446298208     -0.00002698908555
| 30>   C   2.46811813995863     -1.38295180399054     -0.00005240219282
| 31>   C   1.24061543792698     -0.69496199420878     -0.00012711748511
| 32>   C   1.22474219035332      0.72698621586077     -0.00017741356338
| 33>   C   -0.01566516709535      1.42103164152461     -0.00024506128700
| 34>   C   -1.24356348643455      0.69923344199718     -0.00028346088976
| 35>   C   -1.22400277498297     -0.72338676000015     -0.00023734960533
| 36>   C   0.01693487392421     -1.41913103104816     -0.00016297130775
| 37>   H   3.40501735040542     -3.32906588787472      0.00005627444163
| 38>   H   1.29296308352502     -4.58060438188898      0.00000142672494
| 39>   H   -1.17896310310274     -4.61257131284734     -0.00011513591155
| 40>   H   -3.32129405982821     -3.41317602901623     -0.00025227227744
| 41>   H   -4.58586789409211     -1.29266910376159     -0.00037146429946
| 42>   H   -4.62408845924854      1.16575491725399     -0.00044556872067
| 43>   H   -3.41518424261775      3.34878172120577     -0.00045725814046
| 44>   H   1.18854626437870      4.62103847897618     -0.00028959104089
| 45>   H   3.33130215861300      3.41052642430950     -0.00015763965944
| 46>   H   4.58800492413600      1.28586263822177     -0.00004835142171
| 47>   **                         ****END OF INPUT****
================================================================================

                       *****************************
                       * Geometry Optimization Run *
                       *****************************

Geometry optimization settings:
Update method            Update   .... BFGS
Choice of coordinates    CoordSys .... Z-matrix Internals
Initial Hessian          InHess   .... Almoef's Model

Convergence Tolerances:
Energy Change            TolE     ....  1.0000e-06 Eh
Max. Gradient            TolMAXG  ....  1.0000e-04 Eh/bohr
RMS Gradient             TolRMSG  ....  3.0000e-05 Eh/bohr
Max. Displacement        TolMAXD  ....  1.0000e-03 bohr
RMS Displacement         TolRMSD  ....  6.0000e-04 bohr
Strict Convergence                ....  False
------------------------------------------------------------------------------
                        ORCA OPTIMIZATION COORDINATE SETUP
------------------------------------------------------------------------------

The optimization will be done in new redundant internal coordinates
Making redundant internal coordinates   ...  (new redundants) done
Evaluating the initial hessian          ...  (Almloef) done
Evaluating the coordinates              ...  done
Calculating the B-matrix                .... done
Calculating the G-matrix                .... done
Diagonalizing the G-matrix              .... done
The first mode is                       ....  124
The number of degrees of freedom        ....   96

    -----------------------------------------------------------------
                    Redundant Internal Coordinates


    -----------------------------------------------------------------
         Definition                    Initial Value    Approx d2E/dq
    -----------------------------------------------------------------
      1. B(C   1,C   0)                  1.3621         0.692196   
      2. B(C   2,C   1)                  1.4197         0.560163   
      3. B(C   3,C   2)                  1.4199         0.559784   
      4. B(C   4,C   3)                  1.3618         0.692986   
      5. B(C   5,C   4)                  1.4201         0.559307   
      6. B(C   6,C   5)                  1.4190         0.561631   
      7. B(C   7,C   6)                  1.3626         0.691008   
      8. B(C   8,C   7)                  1.4192         0.561288   
      9. B(C   9,C   8)                  1.4288         0.541883   
     10. B(C  10,C   9)                  1.3442         0.739220   
     11. B(C  11,C  10)                  1.4019         0.598077   
     12. B(C  12,C  11)                  1.4190         0.561667   
     13. B(C  13,C  12)                  1.3621         0.692140   
     14. B(C  14,C  13)                  1.4203         0.559059   
     15. B(C  15,C  14)                  1.4200         0.559620   
     16. B(C  16,C  15)                  1.3622         0.691907   
     17. B(C  17,C  16)                  1.4202         0.559263   
     18. B(C  17,C   0)                  1.4198         0.560062   
     19. B(C  18,C  17)                  1.4072         0.586630   
     20. B(C  19,C  18)                  1.4220         0.555426   
     21. B(C  19,C  14)                  1.4078         0.585271   
     22. B(C  20,C  19)                  1.4214         0.556776   
     23. B(C  20,C  11)                  1.4129         0.574471   
     24. B(C  21,C  20)                  1.4243         0.550758   
     25. B(C  21,C   8)                  1.4093         0.582117   
     26. B(C  22,C  21)                  1.4228         0.553963   
     27. B(C  22,C   5)                  1.4078         0.585305   
     28. B(C  23,C  22)                  1.4227         0.554138   
     29. B(C  23,C  18)                  1.4219         0.555694   
     30. B(C  23,C   2)                  1.4075         0.585932   
     31. B(H  24,C   0)                  1.0835         0.368744   
     32. B(H  25,C   1)                  1.0836         0.368724   
     33. B(H  26,C   3)                  1.0835         0.368810   
     34. B(H  27,C   4)                  1.0836         0.368710   
     35. B(H  28,C   6)                  1.0836         0.368624   
     36. B(H  29,C   7)                  1.0834         0.368991   
     37. B(H  30,C   9)                  1.0839         0.368197   
     38. B(H  31,C  12)                  1.0823         0.370391   
     39. B(H  32,C  13)                  1.0835         0.368850   
     40. B(H  33,C  15)                  1.0835         0.368786   
     41. A(C   1,C   0,C  17)          121.0608         0.434729   
     42. A(C  17,C   0,H  24)          118.6528         0.348293   
     43. A(C   1,C   0,H  24)          120.2864         0.361028   
     44. A(C   2,C   1,H  25)          118.5487         0.348301   
     45. A(C   0,C   1,C   2)          121.1656         0.434743   
     46. A(C   0,C   1,H  25)          120.2857         0.361025   
     47. A(C   3,C   2,C  23)          118.9421         0.421892   
     48. A(C   1,C   2,C  23)          118.9086         0.421943   
     49. A(C   1,C   2,C   3)          122.1494         0.418521   
     50. A(C   2,C   3,H  26)          118.6008         0.348275   
     51. A(C   4,C   3,H  26)          120.3137         0.361109   
     52. A(C   2,C   3,C   4)          121.0855         0.434779   
     53. A(C   3,C   4,C   5)          121.0971         0.434712   
     54. A(C   3,C   4,H  27)          120.2911         0.361092   
     55. A(C   5,C   4,H  27)          118.6117         0.348209   
     56. A(C   6,C   5,C  22)          118.9827         0.422060   
     57. A(C   4,C   5,C   6)          122.0536         0.418653   
     58. A(C   4,C   5,C  22)          118.9637         0.421748   
     59. A(C   5,C   6,H  28)          118.5480         0.348439   
     60. A(C   5,C   6,C   7)          121.1310         0.434813   
     61. A(C   7,C   6,H  28)          120.3210         0.360902   
     62. A(C   6,C   7,C   8)          120.9710         0.434765   
     63. A(C   6,C   7,H  29)          120.4526         0.360963   
     64. A(C   8,C   7,H  29)          118.5764         0.348461   
     65. A(C   7,C   8,C   9)          121.9842         0.416254   
     66. A(C   9,C   8,C  21)          118.8777         0.418964   
     67. A(C   7,C   8,C  21)          119.1382         0.421603   
     68. A(C   8,C   9,H  30)          119.6893         0.346278   
     69. A(C   8,C   9,C  10)          117.9180         0.437299   
     70. A(C  10,C   9,H  30)          122.3927         0.365012   
     71. A(C   9,C  10,C  11)          126.6422         0.445165   
     72. A(C  12,C  11,C  20)          119.5942         0.420659   
     73. A(C  10,C  11,C  20)          115.7265         0.425408   
     74. A(C  10,C  11,C  12)          124.6793         0.423696   
     75. A(C  11,C  12,H  31)          118.6115         0.348723   
     76. A(C  11,C  12,C  13)          120.5776         0.434946   
     77. A(C  13,C  12,H  31)          120.8109         0.361297   
     78. A(C  12,C  13,C  14)          121.2544         0.434582   
     79. A(C  14,C  13,H  32)          118.5751         0.348205   
     80. A(C  12,C  13,H  32)          120.1705         0.361040   
     81. A(C  13,C  14,C  15)          122.0388         0.418352   
     82. A(C  15,C  14,C  19)          118.8814         0.421785   
     83. A(C  13,C  14,C  19)          119.0799         0.421710   
     84. A(C  14,C  15,C  16)          121.0741         0.434634   
     85. A(C  16,C  15,H  33)          120.3914         0.361009   
     86. A(C  14,C  15,H  33)          118.5345         0.348254   
     87. A(C  15,C  16,C  17)          121.1123         0.434585   
     88. A(C  16,C  17,C  18)          118.9576         0.421912   
     89. A(C   0,C  17,C  18)          118.8582         0.422020   
     90. A(C   0,C  17,C  16)          122.1842         0.418438   
     91. A(C  17,C  18,C  19)          119.9093         0.421394   
     92. A(C  19,C  18,C  23)          119.9773         0.417343   
     93. A(C  17,C  18,C  23)          120.1134         0.421430   
     94. A(C  18,C  19,C  20)          119.8679         0.417487   
     95. A(C  14,C  19,C  20)          120.0667         0.421402   
     96. A(C  14,C  19,C  18)          120.0654         0.421219   
     97. A(C  11,C  20,C  19)          119.4273         0.420004   
     98. A(C  19,C  20,C  21)          120.3233         0.416860   
     99. A(C  11,C  20,C  21)          120.2494         0.419190   
    100. A(C  20,C  21,C  22)          119.6606         0.416485   
    101. A(C   8,C  21,C  22)          119.7531         0.420615   
    102. A(C   8,C  21,C  20)          120.5863         0.420180   
    103. A(C  21,C  22,C  23)          120.0654         0.416938   
    104. A(C   5,C  22,C  23)          119.9106         0.421049   
    105. A(C   5,C  22,C  21)          120.0240         0.421025   
    106. A(C  18,C  23,C  22)          120.1055         0.417170   
    107. A(C   2,C  23,C  22)          120.0010         0.421129   
    108. A(C   2,C  23,C  18)          119.8934         0.421340   
    109. D(H  25,C   1,C   0,H  24)     -0.0002         0.033683   
    110. D(H  25,C   1,C   0,C  17)   -179.9998         0.033683   
    111. D(C   2,C   1,C   0,H  24)    179.9999         0.033683   
    112. D(C   2,C   1,C   0,C  17)      0.0003         0.033683   
    113. D(C  23,C   2,C   1,C   0)     -0.0004         0.021494   
    114. D(C   3,C   2,C   1,H  25)      0.0003         0.021494   
    115. D(C  23,C   2,C   1,H  25)    179.9997         0.021494   
    116. D(C   3,C   2,C   1,C   0)   -179.9999         0.021494   
    117. D(H  26,C   3,C   2,C   1)     -0.0006         0.021464   
    118. D(H  26,C   3,C   2,C  23)    179.9999         0.021464   
    119. D(C   4,C   3,C   2,C  23)      0.0007         0.021464   
    120. D(C   4,C   3,C   2,C   1)   -179.9999         0.021464   
    121. D(H  27,C   4,C   3,H  26)      0.0007         0.033766   
    122. D(C   5,C   4,C   3,H  26)    179.9999         0.033766   
    123. D(C   5,C   4,C   3,C   2)     -0.0009         0.033766   
    124. D(H  27,C   4,C   3,C   2)    179.9999         0.033766   
    125. D(C  22,C   5,C   4,H  27)    179.9998         0.021426   
    126. D(C   6,C   5,C   4,H  27)     -0.0005         0.021426   
    127. D(C  22,C   5,C   4,C   3)      0.0006         0.021426   
    128. D(C   6,C   5,C   4,C   3)   -179.9996         0.021426   
    129. D(H  28,C   6,C   5,C  22)   -179.9999         0.021611   
    130. D(C   7,C   6,C   5,C  22)     -0.0002         0.021611   
    131. D(H  28,C   6,C   5,C   4)      0.0004         0.021611   
    132. D(C   7,C   6,C   5,C   4)   -180.0000         0.021611   
    133. D(H  29,C   7,C   6,H  28)     -0.0002         0.033558   
    134. D(H  29,C   7,C   6,C   5)   -179.9999         0.033558   
    135. D(C   8,C   7,C   6,H  28)    179.9999         0.033558   
    136. D(C   8,C   7,C   6,C   5)      0.0003         0.033558   
    137. D(C  21,C   8,C   7,C   6)     -0.0001         0.021584   
    138. D(C   9,C   8,C   7,H  29)      0.0001         0.021584   
    139. D(C   9,C   8,C   7,C   6)    179.9999         0.021584   
    140. D(C  21,C   8,C   7,H  29)   -179.9999         0.021584   
    141. D(H  30,C   9,C   8,C  21)    179.9999         0.020068   
    142. D(H  30,C   9,C   8,C   7)     -0.0002         0.020068   
    143. D(C  10,C   9,C   8,C  21)     -0.0001         0.020068   
    144. D(C  10,C   9,C   8,C   7)    179.9998         0.020068   
    145. D(C  11,C  10,C   9,H  30)   -179.9998         0.035175   
    146. D(C  11,C  10,C   9,C   8)      0.0002         0.035175   
    147. D(C  20,C  11,C  10,C   9)     -0.0004         0.022365   
    148. D(C  12,C  11,C  10,C   9)    180.0000         0.022365   
    149. D(H  31,C  12,C  11,C  20)    180.0000         0.021614   
    150. D(H  31,C  12,C  11,C  10)     -0.0004         0.021614   
    151. D(C  13,C  12,C  11,C  20)      0.0004         0.021614   
    152. D(C  13,C  12,C  11,C  10)    180.0000         0.021614   
    153. D(H  32,C  13,C  12,H  31)      0.0003         0.033677   
    154. D(H  32,C  13,C  12,C  11)    179.9999         0.033677   
    155. D(C  14,C  13,C  12,H  31)   -179.9998         0.033677   
    156. D(C  14,C  13,C  12,C  11)     -0.0002         0.033677   
    157. D(C  19,C  14,C  13,H  32)   -179.9998         0.021406   
    158. D(C  19,C  14,C  13,C  12)      0.0003         0.021406   
    159. D(C  15,C  14,C  13,H  32)     -0.0003         0.021406   
    160. D(C  15,C  14,C  13,C  12)    179.9999         0.021406   
    161. D(H  33,C  15,C  14,C  19)    179.9996         0.021451   
    162. D(C  16,C  15,C  14,C  19)     -0.0005         0.021451   
    163. D(C  16,C  15,C  14,C  13)    179.9999         0.021451   
    164. D(H  33,C  15,C  14,C  13)      0.0000         0.021451   
    165. D(C  17,C  16,C  15,H  33)    179.9999         0.030479   
    166. D(C  17,C  16,C  15,C  14)      0.0001         0.030479   
    167. D(C   0,C  17,C  16,C  15)   -180.0000         0.019456   
    168. D(C  18,C  17,C   0,H  24)   -179.9996         0.021486   
    169. D(C  18,C  17,C   0,C   1)     -0.0000         0.021486   
    170. D(C  16,C  17,C   0,H  24)      0.0005         0.021486   
    171. D(C  16,C  17,C   0,C   1)   -179.9999         0.021486   
    172. D(C  18,C  17,C  16,C  15)      0.0002         0.019456   
    173. D(C  23,C  18,C  17,C  16)    179.9996         0.023669   
    174. D(C  23,C  18,C  17,C   0)     -0.0003         0.023669   
    175. D(C  19,C  18,C  17,C  16)      0.0001         0.023669   
    176. D(C  19,C  18,C  17,C   0)   -179.9998         0.023669   
    177. D(C  20,C  19,C  18,C  23)      0.0009         0.021119   
    178. D(C  20,C  19,C  18,C  17)   -179.9996         0.021119   
    179. D(C  14,C  19,C  18,C  23)    179.9999         0.021119   
    180. D(C  14,C  19,C  18,C  17)     -0.0006         0.021119   
    181. D(C  20,C  19,C  14,C  15)    179.9999         0.023554   
    182. D(C  20,C  19,C  14,C  13)     -0.0006         0.023554   
    183. D(C  18,C  19,C  14,C  15)      0.0008         0.023554   
    184. D(C  18,C  19,C  14,C  13)   -179.9996         0.023554   
    185. D(C  21,C  20,C  19,C  18)     -0.0010         0.021225   
    186. D(C  21,C  20,C  19,C  14)    180.0000         0.021225   
    187. D(C  11,C  20,C  19,C  18)    179.9998         0.021225   
    188. D(C  11,C  20,C  19,C  14)      0.0007         0.021225   
    189. D(C  21,C  20,C  11,C  12)   -179.9999         0.022654   
    190. D(C  21,C  20,C  11,C  10)      0.0005         0.022654   
    191. D(C  19,C  20,C  11,C  12)     -0.0006         0.022654   
    192. D(C  19,C  20,C  11,C  10)    179.9997         0.022654   
    193. D(C  22,C  21,C  20,C  19)      0.0008         0.020753   
    194. D(C  22,C  21,C  20,C  11)   -180.0000         0.020753   
    195. D(C   8,C  21,C  20,C  19)   -179.9997         0.020753   
    196. D(C   8,C  21,C  20,C  11)     -0.0004         0.020753   
    197. D(C  22,C  21,C   8,C   9)    179.9998         0.023289   
    198. D(C  22,C  21,C   8,C   7)     -0.0002         0.023289   
    199. D(C  20,C  21,C   8,C   9)      0.0003         0.023289   
    200. D(C  20,C  21,C   8,C   7)   -179.9997         0.023289   
    201. D(C  23,C  22,C  21,C  20)     -0.0004         0.021004   
    202. D(C  23,C  22,C  21,C   8)    180.0000         0.021004   
    203. D(C   5,C  22,C  21,C  20)    179.9998         0.021004   
    204. D(C   5,C  22,C  21,C   8)      0.0002         0.021004   
    205. D(C  23,C  22,C   5,C   6)   -179.9998         0.023557   
    206. D(C  23,C  22,C   5,C   4)     -0.0001         0.023557   
    207. D(C  21,C  22,C   5,C   6)     -0.0000         0.023557   
    208. D(C  21,C  22,C   5,C   4)    179.9997         0.023557   
    209. D(C  18,C  23,C  22,C  21)      0.0003         0.021017   
    210. D(C   2,C  23,C  22,C  21)   -179.9999         0.021017   
    211. D(C   2,C  23,C  22,C   5)     -0.0002         0.021017   
    212. D(C  22,C  23,C  18,C  19)     -0.0005         0.021140   
    213. D(C  22,C  23,C  18,C  17)    179.9999         0.021140   
    214. D(C   2,C  23,C  18,C  19)    179.9997         0.021140   
    215. D(C   2,C  23,C  18,C  17)      0.0002         0.021140   
    216. D(C  22,C  23,C   2,C   3)     -0.0001         0.023610   
    217. D(C  22,C  23,C   2,C   1)   -179.9996         0.023610   
    218. D(C  18,C  23,C  22,C   5)   -179.9999         0.021017   
    219. D(C  18,C  23,C   2,C   3)    179.9996         0.023610   
    220. D(C  18,C  23,C   2,C   1)      0.0001         0.023610   
    -----------------------------------------------------------------

Number of atoms                         .... 34
Number of degrees of freedom            .... 220

         *************************************************************
         *                GEOMETRY OPTIMIZATION CYCLE   1            *
         *************************************************************
---------------------------------
CARTESIAN COORDINATES (ANGSTROEM)
---------------------------------
  C      2.457920   -2.802689   -0.000008
  C      1.286088   -3.497069   -0.000036
  C      0.034705   -2.826501   -0.000119
  C     -1.199096   -3.529264   -0.000147
  C     -2.387275   -2.863878   -0.000230
  C     -2.433075   -1.444476   -0.000270
  C     -3.659424   -0.730567   -0.000349
  C     -3.681432    0.631837   -0.000388
  C     -2.476543    1.381711   -0.000357
  C     -2.474357    2.810465   -0.000398
  C     -1.285614    3.438021   -0.000362
  C     -0.020572    2.833882   -0.000290
  C      1.210867    3.538939   -0.000254
  C      2.394893    2.865518   -0.000184
  C      2.435171    1.445828   -0.000140
  C      3.659759    0.726972   -0.000070
  C      3.675460   -0.635164   -0.000027
  C      2.468118   -1.382952   -0.000052
  C      1.240615   -0.694962   -0.000127
  C      1.224742    0.726986   -0.000177
  C     -0.015665    1.421032   -0.000245
  C     -1.243563    0.699233   -0.000283
  C     -1.224003   -0.723387   -0.000237
  C      0.016935   -1.419131   -0.000163
  H      3.405017   -3.329066    0.000056
  H      1.292963   -4.580604    0.000001
  H     -1.178963   -4.612571   -0.000115
  H     -3.321294   -3.413176   -0.000252
  H     -4.585868   -1.292669   -0.000371
  H     -4.624088    1.165755   -0.000446
  H     -3.415184    3.348782   -0.000457
  H      1.188546    4.621038   -0.000290
  H      3.331302    3.410526   -0.000158
  H      4.588005    1.285863   -0.000048

----------------------------
CARTESIAN COORDINATES (A.U.)
----------------------------
  NO LB      ZA    FRAG     MASS         X           Y           Z
   0 C     6.0000    0    12.011    4.644795   -5.296315   -0.000015
   1 C     6.0000    0    12.011    2.430353   -6.608502   -0.000069
   2 C     6.0000    0    12.011    0.065584   -5.341313   -0.000225
   3 C     6.0000    0    12.011   -2.265963   -6.669343   -0.000279
   4 C     6.0000    0    12.011   -4.511297   -5.411945   -0.000434
   5 C     6.0000    0    12.011   -4.597846   -2.729664   -0.000511
   6 C     6.0000    0    12.011   -6.915308   -1.380571   -0.000659
   7 C     6.0000    0    12.011   -6.956898    1.193999   -0.000732
   8 C     6.0000    0    12.011   -4.679988    2.611055   -0.000675
   9 C     6.0000    0    12.011   -4.675856    5.311010   -0.000753
  10 C     6.0000    0    12.011   -2.429459    6.496919   -0.000683
  11 C     6.0000    0    12.011   -0.038876    5.355261   -0.000548
  12 C     6.0000    0    12.011    2.288207    6.687626   -0.000480
  13 C     6.0000    0    12.011    4.525692    5.415045   -0.000348
  14 C     6.0000    0    12.011    4.601806    2.732218   -0.000265
  15 C     6.0000    0    12.011    6.915942    1.373779   -0.000132
  16 C     6.0000    0    12.011    6.945614   -1.200287   -0.000051
  17 C     6.0000    0    12.011    4.664067   -2.613400   -0.000099
  18 C     6.0000    0    12.011    2.344423   -1.313288   -0.000240
  19 C     6.0000    0    12.011    2.314427    1.373805   -0.000335
  20 C     6.0000    0    12.011   -0.029603    2.685361   -0.000463
  21 C     6.0000    0    12.011   -2.349994    1.321360   -0.000536
  22 C     6.0000    0    12.011   -2.313030   -1.367003   -0.000449
  23 C     6.0000    0    12.011    0.032002   -2.681769   -0.000308
  24 H     1.0000    0     1.008    6.434550   -6.291023    0.000106
  25 H     1.0000    0     1.008    2.443346   -8.656088    0.000003
  26 H     1.0000    0     1.008   -2.227917   -8.716497   -0.000218
  27 H     1.0000    0     1.008   -6.276336   -6.449968   -0.000477
  28 H     1.0000    0     1.008   -8.666034   -2.442791   -0.000702
  29 H     1.0000    0     1.008   -8.738261    2.202958   -0.000842
  30 H     1.0000    0     1.008   -6.453763    6.328280   -0.000864
  31 H     1.0000    0     1.008    2.246027    8.732497   -0.000547
  32 H     1.0000    0     1.008    6.295249    6.444961   -0.000298
  33 H     1.0000    0     1.008    8.670073    2.429928   -0.000091

--------------------------------
INTERNAL COORDINATES (ANGSTROEM)
--------------------------------
 C      0   0   0     0.000000000000     0.00000000     0.00000000
 C      1   0   0     1.362113679096     0.00000000     0.00000000
 C      2   1   0     1.419724783837   121.16560922     0.00000000
 C      3   2   1     1.419909247897   122.14936829   180.00012514
 C      4   3   2     1.361803310114   121.08549338   180.00014219
 C      5   4   3     1.420141122251   121.09714964     0.00000000
 C      6   5   4     1.419012388076   122.05359964   180.00035250
 C      7   6   5     1.362581485232   121.13095823   180.00004575
 C      8   7   6     1.419178621480   120.97098694     0.00000000
 C      9   8   7     1.428756148094   121.98415257   179.99993018
 C     10   9   8     1.344222585462   117.91798224   179.99982824
 C     11  10   9     1.401897284280   126.64222024     0.00000000
 C     12  11  10     1.418995211879   124.67934702   179.99996824
 C     13  12  11     1.362135809022   120.57756794   179.99997748
 C     14  13  12     1.420261984758   121.25435076     0.00000000
 C     15  14  13     1.419988977707   122.03878309   179.99987718
 C     16  15  14     1.362227386094   121.07411591   179.99989307
 C      1   2   3     1.419774138430   121.06079764     0.00000000
 C     18   1   2     1.407157726568   118.85816447     0.00000000
 C     15  14  13     1.407789236399   119.07985977     0.00000000
 C     12  11  10     1.412859063314   115.72648181     0.00000000
 C      9   8   7     1.409260162609   119.13818147     0.00000000
 C      6   5   4     1.407773173691   118.96366889     0.00000000
 C      3   2   1     1.407482165417   118.90857994     0.00000000
 H      1   2   3     1.083543264277   120.28639352   179.99993510
 H      2   1   3     1.083557362447   120.28567582   179.99985180
 H      4   3   2     1.083494320220   118.60077089     0.00000000
 H      5   4   3     1.083567787178   120.29111832   179.99989480
 H      7   6   5     1.083631881832   118.54804936     0.00000000
 H      8   7   6     1.083360529949   120.45257468   180.00011038
 H     10   9   8     1.083947122969   119.68934415     0.00000000
 H     13  12  11     1.082329634012   118.61148842     0.00000000
 H     14  13  12     1.083464585813   120.17050164   179.99994437
 H     16  15  14     1.083512229910   118.53445959     0.00000000

---------------------------
INTERNAL COORDINATES (A.U.)
---------------------------
 C      0   0   0     0.000000000000     0.00000000     0.00000000
 C      1   0   0     2.574021816758     0.00000000     0.00000000
 C      2   1   0     2.682891026993   121.16560922     0.00000000
 C      3   2   1     2.683239613547   122.14936829   180.00012514
 C      4   3   2     2.573435304383   121.08549338   180.00014219
 C      5   4   3     2.683677792575   121.09714964     0.00000000
 C      6   5   4     2.681544794105   122.05359964   180.00035250
 C      7   6   5     2.574905842241   121.13095823   180.00004575
 C      8   7   6     2.681858929714   120.97098694     0.00000000
 C      9   8   7     2.699957832055   121.98415257   179.99993018
 C     10   9   8     2.540212549554   117.91798224   179.99982824
 C     11  10   9     2.649201935177   126.64222024     0.00000000
 C     12  11  10     2.681512335797   124.67934702   179.99996824
 C     13  12  11     2.574063636258   120.57756794   179.99997748
 C     14  13  12     2.683906189613   121.25435076     0.00000000
 C     15  14  13     2.683390281052   122.03878309   179.99987718
 C     16  15  14     2.574236691845   121.07411591   179.99989307
 C      1   2   3     2.682984293657   121.06079764     0.00000000
 C     18   1   2     2.659142730445   118.85816447     0.00000000
 C     15  14  13     2.660336111077   119.07985977     0.00000000
 C     12  11  10     2.669916695492   115.72648181     0.00000000
 C      9   8   7     2.663115758776   119.13818147     0.00000000
 C      6   5   4     2.660305756958   118.96366889     0.00000000
 C      3   2   1     2.659755831016   118.90857994     0.00000000
 H      1   2   3     2.047600023738   120.28639352   179.99993510
 H      2   1   3     2.047626665418   120.28567582   179.99985180
 H      4   3   2     2.047507532875   118.60077089     0.00000000
 H      5   4   3     2.047646365305   120.29111832   179.99989480
 H      7   6   5     2.047767486649   118.54804936     0.00000000
 H      8   7   6     2.047254705903   120.45257468   180.00011038
 H     10   9   8     2.048363206063   119.68934415     0.00000000
 H     13  12  11     2.045306594911   118.61148842     0.00000000
 H     14  13  12     2.047451342988   120.17050164   179.99994437
 H     16  15  14     2.047541377284   118.53445959     0.00000000

---------------------
BASIS SET INFORMATION
---------------------
There are 2 groups of distinct atoms

 Group   1 Type C   : 11s6p2d1f contracted to 5s3p2d1f pattern {62111/411/11/1}
 Group   2 Type H   : 5s1p contracted to 3s1p pattern {311/1}

Atom   0C    basis set group =>   1
Atom   1C    basis set group =>   1
Atom   2C    basis set group =>   1
Atom   3C    basis set group =>   1
Atom   4C    basis set group =>   1
Atom   5C    basis set group =>   1
Atom   6C    basis set group =>   1
Atom   7C    basis set group =>   1
Atom   8C    basis set group =>   1
Atom   9C    basis set group =>   1
Atom  10C    basis set group =>   1
Atom  11C    basis set group =>   1
Atom  12C    basis set group =>   1
Atom  13C    basis set group =>   1
Atom  14C    basis set group =>   1
Atom  15C    basis set group =>   1
Atom  16C    basis set group =>   1
Atom  17C    basis set group =>   1
Atom  18C    basis set group =>   1
Atom  19C    basis set group =>   1
Atom  20C    basis set group =>   1
Atom  21C    basis set group =>   1
Atom  22C    basis set group =>   1
Atom  23C    basis set group =>   1
Atom  24H    basis set group =>   2
Atom  25H    basis set group =>   2
Atom  26H    basis set group =>   2
Atom  27H    basis set group =>   2
Atom  28H    basis set group =>   2
Atom  29H    basis set group =>   2
Atom  30H    basis set group =>   2
Atom  31H    basis set group =>   2
Atom  32H    basis set group =>   2
Atom  33H    basis set group =>   2
---------------------------------
AUXILIARY/J BASIS SET INFORMATION
---------------------------------
There are 2 groups of distinct atoms

 Group   1 Type C   : 12s5p4d2f1g contracted to 6s4p3d1f1g pattern {711111/2111/211/2/1}
 Group   2 Type H   : 5s2p1d contracted to 3s1p1d pattern {311/2/1}

Atom   0C    basis set group =>   1
Atom   1C    basis set group =>   1
Atom   2C    basis set group =>   1
Atom   3C    basis set group =>   1
Atom   4C    basis set group =>   1
Atom   5C    basis set group =>   1
Atom   6C    basis set group =>   1
Atom   7C    basis set group =>   1
Atom   8C    basis set group =>   1
Atom   9C    basis set group =>   1
Atom  10C    basis set group =>   1
Atom  11C    basis set group =>   1
Atom  12C    basis set group =>   1
Atom  13C    basis set group =>   1
Atom  14C    basis set group =>   1
Atom  15C    basis set group =>   1
Atom  16C    basis set group =>   1
Atom  17C    basis set group =>   1
Atom  18C    basis set group =>   1
Atom  19C    basis set group =>   1
Atom  20C    basis set group =>   1
Atom  21C    basis set group =>   1
Atom  22C    basis set group =>   1
Atom  23C    basis set group =>   1
Atom  24H    basis set group =>   2
Atom  25H    basis set group =>   2
Atom  26H    basis set group =>   2
Atom  27H    basis set group =>   2
Atom  28H    basis set group =>   2
Atom  29H    basis set group =>   2
Atom  30H    basis set group =>   2
Atom  31H    basis set group =>   2
Atom  32H    basis set group =>   2
Atom  33H    basis set group =>   2


           ************************************************************
           *        Program running with 4 parallel MPI-processes     *
           *              working on a common directory               *
           ************************************************************
------------------------------------------------------------------------------
                           ORCA GTO INTEGRAL CALCULATION
                           -- RI-GTO INTEGRALS CHOSEN --
------------------------------------------------------------------------------
------------------------------------------------------------------------------
                   ___                                                        
                  /   \      - P O W E R E D   B Y -                         
                 /     \                                                     
                 |  |  |   _    _      __       _____    __    __             
                 |  |  |  | |  | |    /  \     |  _  \  |  |  /  |          
                  \  \/   | |  | |   /    \    | | | |  |  | /  /          
                 / \  \   | |__| |  /  /\  \   | |_| |  |  |/  /          
                |  |  |   |  __  | /  /__\  \  |    /   |      \           
                |  |  |   | |  | | |   __   |  |    \   |  |\   \          
                \     /   | |  | | |  |  |  |  | |\  \  |  | \   \       
                 \___/    |_|  |_| |__|  |__|  |_| \__\ |__|  \__/        
                                                                              
                      - O R C A' S   B I G   F R I E N D -                    
                                      &                                       
                       - I N T E G R A L  F E E D E R -                       
                                                                              
 v1 FN, 2020, v2 2021                                                         
------------------------------------------------------------------------------


Reading SHARK input file eight_twelve.SHARKINP.tmp ... ok
----------------------
SHARK INTEGRAL PACKAGE
----------------------

Number of atoms                             ...     34
Number of basis functions                   ...    804
Number of shells                            ...    304
Maximum angular momentum                    ...      3
Integral batch strategy                     ... SHARK/LIBINT Hybrid
RI-J (if used) integral strategy            ... SPLIT-RIJ (Revised 2003 algorithm where possible)
Printlevel                                  ...      1
Contraction scheme used                     ... SEGMENTED contraction
Coulomb Range Separation                    ... NOT USED
Exchange Range Separation                   ... NOT USED
Finite Nucleus Model                        ... NOT USED
Auxiliary Coulomb fitting basis             ... AVAILABLE
   # of basis functions in Aux-J            ...   1286
   # of shells in Aux-J                     ...    410
   Maximum angular momentum in Aux-J        ...      4
Auxiliary J/K fitting basis                 ... NOT available
Auxiliary Correlation fitting basis         ... NOT available
Auxiliary 'external' fitting basis          ... NOT available
Integral threshold                          ...     2.500000e-11
Primitive cut-off                           ...     2.500000e-12
Primitive pair pre-selection threshold      ...     2.500000e-12

Calculating pre-screening integrals         ... done (  0.1 sec) Dimension = 304
Organizing shell pair data                  ... done (  1.3 sec)
Shell pair information
Total number of shell pairs                 ...     46360
Shell pairs after pre-screening             ...     35738
Total number of primitive shell pairs       ...    146628
Primitive shell pairs kept                  ...     75591
          la=0 lb=0:   8083 shell pairs
          la=1 lb=0:   9818 shell pairs
          la=1 lb=1:   2940 shell pairs
          la=2 lb=0:   5414 shell pairs
          la=2 lb=1:   3293 shell pairs
          la=2 lb=2:    929 shell pairs
          la=3 lb=0:   2542 shell pairs
          la=3 lb=1:   1588 shell pairs
          la=3 lb=2:    894 shell pairs
          la=3 lb=3:    237 shell pairs

Calculating one electron integrals          ... done (  0.1 sec)
Calculating RI/J V-Matrix + Cholesky decomp.... done (  0.2 sec)
Calculating Nuclear repulsion               ... done (  0.0 sec) ENN=   1800.828759460431 Eh

SHARK setup successfully completed in   6.4 seconds

Maximum memory used throughout the entire GTOINT-calculation: 52.5 MB


           ************************************************************
           *        Program running with 4 parallel MPI-processes     *
           *              working on a common directory               *
           ************************************************************
-------------------------------------------------------------------------------
                                 ORCA SCF
-------------------------------------------------------------------------------

------------
SCF SETTINGS
------------
Hamiltonian:
 Density Functional     Method          .... DFT(GTOs)
 Exchange Functional    Exchange        .... M062X
 Correlation Functional Correlation     .... M062X
 Gradients option       PostSCFGGA      .... off
 Hybrid DFT is turned on
   Fraction HF Exchange ScalHFX         ....  0.540000
   Scaling of DF-GGA-X  ScalDFX         ....  0.460000
   Scaling of DF-GGA-C  ScalDFC         ....  1.000000
   Scaling of DF-LDA-C  ScalLDAC        ....  1.000000
   Perturbative correction              ....  0.000000
   Density functional embedding theory  .... OFF
 RI-approximation to the Coulomb term is turned on
   Number of AuxJ basis functions       .... 1286
   RIJ-COSX (HFX calculated with COS-X)).... on


General Settings:
 Integral files         IntName         .... eight_twelve
 Hartree-Fock type      HFTyp           .... RHF
 Total Charge           Charge          ....    0
 Multiplicity           Mult            ....    1
 Number of Electrons    NEL             ....  154
 Basis Dimension        Dim             ....  804
 Nuclear Repulsion      ENuc            ....   1800.8287594604 Eh

Convergence Acceleration:
 DIIS                   CNVDIIS         .... on
   Start iteration      DIISMaxIt       ....    12
   Startup error        DIISStart       ....  0.200000
   # of expansion vecs  DIISMaxEq       ....     5
   Bias factor          DIISBfac        ....   1.050
   Max. coefficient     DIISMaxC        ....  10.000
 Trust-Rad. Augm. Hess. CNVTRAH         .... auto
   Auto Start mean grad. ratio tolernc. ....  1.125000
   Auto Start start iteration           ....    20
   Auto Start num. interpolation iter.  ....    10
   Max. Number of Micro iterations      ....    16
   Max. Number of Macro iterations      .... Maxiter - #DIIS iter
   Number of Davidson start vectors     ....     2
   Converg. threshold I  (grad. norm)   ....   1.000e-05
   Converg. threshold II (energy diff.) ....   1.000e-08
   Grad. Scal. Fac. for Micro threshold ....   0.100
   Minimum threshold for Micro iter.    ....   0.010
   NR start threshold (gradient norm)   ....   0.001
   Initial trust radius                 ....   0.400
   Minimum AH scaling param. (alpha)    ....   1.000
   Maximum AH scaling param. (alpha)    .... 1000.000
   Orbital update algorithm             .... Taylor
   White noise on init. David. guess    .... on
   Maximum white noise                  ....   0.010
   Quad. conv. algorithm                .... NR
 SOSCF                  CNVSOSCF        .... on
   Start iteration      SOSCFMaxIt      ....   150
   Startup grad/error   SOSCFStart      ....  0.003300
 Level Shifting         CNVShift        .... on
   Level shift para.    LevelShift      ....    0.2500
   Turn off err/grad.   ShiftErr        ....    0.0010
 Zerner damping         CNVZerner       .... off
 Static damping         CNVDamp         .... on
   Fraction old density DampFac         ....    0.7000
   Max. Damping (<1)    DampMax         ....    0.9800
   Min. Damping (>=0)   DampMin         ....    0.0000
   Turn off err/grad.   DampErr         ....    0.1000
 Fernandez-Rico         CNVRico         .... off

SCF Procedure:
 Maximum # iterations   MaxIter         ....   125
 SCF integral mode      SCFMode         .... Direct
   Integral package                     .... SHARK and LIBINT hybrid scheme
 Reset frequency        DirectResetFreq ....    20
 Integral Threshold     Thresh          ....  2.500e-11 Eh
 Primitive CutOff       TCut            ....  2.500e-12 Eh

Convergence Tolerance:
 Convergence Check Mode ConvCheckMode   .... Total+1el-Energy
 Convergence forced     ConvForced      .... 0
 Energy Change          TolE            ....  1.000e-08 Eh
 1-El. energy change                    ....  1.000e-05 Eh
 Orbital Gradient       TolG            ....  1.000e-05
 Orbital Rotation angle TolX            ....  1.000e-05
 DIIS Error             TolErr          ....  5.000e-07


Diagonalization of the overlap matrix:
Smallest eigenvalue                        ... 6.264e-07
Time for diagonalization                   ...    0.201 sec
Threshold for overlap eigenvalues          ... 1.000e-08
Number of eigenvalues below threshold      ... 0
Time for construction of square roots      ...    0.097 sec
Total time needed                          ...    0.301 sec

Time for model grid setup =    0.567 sec

------------------------------
INITIAL GUESS: MODEL POTENTIAL
------------------------------
Loading Hartree-Fock densities                     ... done
Calculating cut-offs                               ... done
Initializing the effective Hamiltonian             ... done
Setting up the integral package (SHARK)            ... done
Starting the Coulomb interaction                   ... done (   1.3 sec)
Reading the grid                                   ... done
Mapping shells                                     ... done
Starting the XC term evaluation                    ... done (   1.4 sec)
  promolecular density results
     # of electrons  =    153.981275937
     EX              =   -125.795778529
     EC              =     -5.219312757
     EX+EC           =   -131.015091286
Transforming the Hamiltonian                       ... done (   0.1 sec)
Diagonalizing the Hamiltonian                      ... done (   0.1 sec)
Back transforming the eigenvectors                 ... done (   0.0 sec)
Now organizing SCF variables                       ... done
                      ------------------
                      INITIAL GUESS DONE (   3.6 sec)
                      ------------------
-------------------
DFT GRID GENERATION
-------------------

General Integration Accuracy     IntAcc      ... 4.388
Radial Grid Type                 RadialGrid  ... OptM3 with GC (2021)
Angular Grid (max. ang.)         AngularGrid ... 4 (Lebedev-302)
Angular grid pruning method      GridPruning ... 4 (adaptive)
Weight generation scheme         WeightScheme... Becke
Basis function cutoff            BFCut       ... 1.0000e-11
Integration weight cutoff        WCut        ... 1.0000e-14
Angular grids for H and He will be reduced by one unit
Partially contracted basis set               ... off
Rotationally invariant grid construction     ... off

Total number of grid points                  ...   174244
Total number of batches                      ...     2738
Average number of points per batch           ...       63
Average number of grid points per atom       ...     5125
Time for grid setup =    1.899 sec

--------------------
COSX GRID GENERATION
--------------------

GRIDX 1
-------
General Integration Accuracy     IntAcc      ... 3.816
Radial Grid Type                 RadialGrid  ... OptM3 with GC (2021)
Angular Grid (max. ang.)         AngularGrid ... 1 (Lebedev-50)
Angular grid pruning method      GridPruning ... 4 (adaptive)
Weight generation scheme         WeightScheme... Becke
Basis function cutoff            BFCut       ... 1.0000e-11
Integration weight cutoff        WCut        ... 1.0000e-14
Angular grids for H and He will be reduced by one unit
Partially contracted basis set               ... on
Rotationally invariant grid construction     ... off

Total number of grid points                  ...    22167
Total number of batches                      ...      359
Average number of points per batch           ...       61
Average number of grid points per atom       ...      652
UseSFitting                                  ... on

GRIDX 2
-------
General Integration Accuracy     IntAcc      ... 4.020
Radial Grid Type                 RadialGrid  ... OptM3 with GC (2021)
Angular Grid (max. ang.)         AngularGrid ... 2 (Lebedev-110)
Angular grid pruning method      GridPruning ... 4 (adaptive)
Weight generation scheme         WeightScheme... Becke
Basis function cutoff            BFCut       ... 1.0000e-11
Integration weight cutoff        WCut        ... 1.0000e-14
Angular grids for H and He will be reduced by one unit
Partially contracted basis set               ... on
Rotationally invariant grid construction     ... off

Total number of grid points                  ...    49057
Total number of batches                      ...      785
Average number of points per batch           ...       62
Average number of grid points per atom       ...     1443
UseSFitting                                  ... on

GRIDX 3
-------
General Integration Accuracy     IntAcc      ... 4.338
Radial Grid Type                 RadialGrid  ... OptM3 with GC (2021)
Angular Grid (max. ang.)         AngularGrid ... 3 (Lebedev-194)
Angular grid pruning method      GridPruning ... 4 (adaptive)
Weight generation scheme         WeightScheme... Becke
Basis function cutoff            BFCut       ... 1.0000e-11
Integration weight cutoff        WCut        ... 1.0000e-14
Angular grids for H and He will be reduced by one unit
Partially contracted basis set               ... on
Rotationally invariant grid construction     ... off

Total number of grid points                  ...   107960
Total number of batches                      ...     1706
Average number of points per batch           ...       63
Average number of grid points per atom       ...     3175
UseSFitting                                  ... on

Time for X-Grid setup             =    4.898 sec

--------------
SCF ITERATIONS
--------------
ITER       Energy         Delta-E        Max-DP      RMS-DP      [F,P]     Damp
               ***  Starting incremental Fock matrix formation  ***
  0   -919.6822434581   0.000000000000 0.14066540  0.00196286  0.1877442 0.7000
  1   -920.0333225573  -0.351079099189 0.13210903  0.00160558  0.0860139 0.7000
                               ***Turning on DIIS***
  2   -920.0682712112  -0.034948653944 0.09315883  0.00124198  0.1167670 0.7000
  3   -920.1810032797  -0.112732068496 0.23635727  0.00298539  0.0493812 0.0000
  4   -920.3437119825  -0.162708702743 0.04601963  0.00063134  0.0832234 0.0000
  5   -920.3654843316  -0.021772349094 0.03411282  0.00035434  0.0142588 0.0000
  6   -920.3669509537  -0.001466622088 0.03080922  0.00026658  0.0065422 0.0000
  7   -920.3672866735  -0.000335719868 0.01782967  0.00015393  0.0039268 0.0000
                      *** Initiating the SOSCF procedure ***
                           *** Shutting down DIIS ***
                      *** Re-Reading the Fockian *** 
                      *** Removing any level shift *** 
ITER      Energy       Delta-E        Grad      Rot      Max-DP    RMS-DP
  8   -920.36744247  -0.0001557959  0.001089  0.001089  0.010587  0.000097
               *** Restarting incremental Fock matrix formation ***
  9   -920.36715496   0.0002875073  0.000750  0.005585  0.136309  0.001641
 10   -920.36703119   0.0001237729  0.007365  0.028285  0.502928  0.004511
 11   -920.36715711  -0.0001259210  0.001980  0.007977  0.501065  0.004468
 12   -920.36719623  -0.0000391228  0.001296  0.002672  0.058512  0.000625
 13   -920.36725458  -0.0000583452  0.000451  0.003284  0.091691  0.000967
 14   -920.36725847  -0.0000038918  0.000093  0.000249  0.017089  0.000169
 15   -920.36725972  -0.0000012525  0.000073  0.000404  0.020920  0.000212
 16   -920.36725994  -0.0000002209  0.000029  0.000192  0.006514  0.000067
 17   -920.36725999  -0.0000000491  0.000014  0.000130  0.003552  0.000037
 18   -920.36725996   0.0000000353  0.000011  0.000029  0.002119  0.000021
 19   -920.36726001  -0.0000000527  0.000003  0.000012  0.000684  0.000007
                  ***Gradient check signals convergence***
              ***Rediagonalizing the Fockian in SOSCF/NRSCF***

               *****************************************************
               *                     SUCCESS                       *
               *           SCF CONVERGED AFTER  20 CYCLES          *
               *****************************************************

Old exchange energy                            =    -69.112060950 Eh
New exchange energy                            =    -69.111890766 Eh
Exchange energy change after final integration =      0.000170184 Eh
Total energy after final integration           =   -920.367089826 Eh
Final COS-X integration done in                =    82.566 sec

----------------
TOTAL SCF ENERGY
----------------

Total Energy       :         -920.36708983 Eh          -25044.46175 eV

Components:
Nuclear Repulsion  :         1800.82875946 Eh           49003.04181 eV
Electronic Energy  :        -2721.19584929 Eh          -74047.50356 eV
One Electron Energy:        -4819.59382044 Eh         -131147.81528 eV
Two Electron Energy:         2098.39797115 Eh           57100.31172 eV
Max COSX asymmetry :            0.00000559 Eh               0.00015 eV

Virial components:
Potential Energy   :        -1836.18516449 Eh          -49965.13850 eV
Kinetic Energy     :          915.81807466 Eh           24920.67675 eV
Virial Ratio       :            2.00496716


DFT components:
N(Alpha)           :       77.000151928991 electrons
N(Beta)            :       77.000151928991 electrons
N(Total)           :      154.000303857981 electrons
E(XC)              :      -64.620611014222 Eh       
DFET-embed. en.    :        0.000000000000 Eh       

---------------
SCF CONVERGENCE
---------------

  Last Energy change         ...   -4.2905e-10  Tolerance :   1.0000e-08
  Last MAX-Density change    ...    2.4425e-15  Tolerance :   1.0000e-07
  Last RMS-Density change    ...    1.4757e-17  Tolerance :   5.0000e-09
  Last Orbital Gradient      ...    1.6537e-06  Tolerance :   1.0000e-05
  Last Orbital Rotation      ...    1.3205e-05  Tolerance :   1.0000e-05

             **** THE GBW FILE WAS UPDATED (eight_twelve.gbw) ****
             **** DENSITY eight_twelve.scfp WAS UPDATED ****
             **** ENERGY FILE WAS UPDATED (eight_twelve.en.tmp) ****
             **** THE GBW FILE WAS UPDATED (eight_twelve.gbw) ****
             **** DENSITY eight_twelve.scfp WAS UPDATED ****
----------------
ORBITAL ENERGIES
----------------

  NO   OCC          E(Eh)            E(eV) 
   0   2.0000     -10.592650      -288.2407 
   1   2.0000     -10.578636      -287.8593 
   2   2.0000     -10.577927      -287.8400 
   3   2.0000     -10.575862      -287.7838 
   4   2.0000     -10.569561      -287.6124 
   5   2.0000     -10.568680      -287.5884 
   6   2.0000     -10.568328      -287.5788 
   7   2.0000     -10.567684      -287.5613 
   8   2.0000     -10.566903      -287.5401 
   9   2.0000     -10.566878      -287.5394 
  10   2.0000     -10.566431      -287.5272 
  11   2.0000     -10.565203      -287.4938 
  12   2.0000     -10.565109      -287.4912 
  13   2.0000     -10.563480      -287.4469 
  14   2.0000     -10.562408      -287.4177 
  15   2.0000     -10.558677      -287.3162 
  16   2.0000     -10.558342      -287.3071 
  17   2.0000     -10.557370      -287.2806 
  18   2.0000     -10.557073      -287.2726 
  19   2.0000     -10.554647      -287.2065 
  20   2.0000     -10.553517      -287.1758 
  21   2.0000     -10.551870      -287.1310 
  22   2.0000     -10.551851      -287.1305 
  23   2.0000     -10.550855      -287.1034 
  24   2.0000      -1.031417       -28.0663 
  25   2.0000      -0.992053       -26.9951 
  26   2.0000      -0.989491       -26.9254 
  27   2.0000      -0.939735       -25.5715 
  28   2.0000      -0.936918       -25.4948 
  29   2.0000      -0.918993       -25.0071 
  30   2.0000      -0.885358       -24.0918 
  31   2.0000      -0.869359       -23.6564 
  32   2.0000      -0.852068       -23.1859 
  33   2.0000      -0.848904       -23.0998 
  34   2.0000      -0.816009       -22.2047 
  35   2.0000      -0.813374       -22.1330 
  36   2.0000      -0.734065       -19.9749 
  37   2.0000      -0.730751       -19.8847 
  38   2.0000      -0.725146       -19.7322 
  39   2.0000      -0.720044       -19.5934 
  40   2.0000      -0.716610       -19.4999 
  41   2.0000      -0.650894       -17.7117 
  42   2.0000      -0.638405       -17.3719 
  43   2.0000      -0.628004       -17.0889 
  44   2.0000      -0.615454       -16.7474 
  45   2.0000      -0.609799       -16.5935 
  46   2.0000      -0.598566       -16.2878 
  47   2.0000      -0.554833       -15.0978 
  48   2.0000      -0.552643       -15.0382 
  49   2.0000      -0.540627       -14.7112 
  50   2.0000      -0.537306       -14.6208 
  51   2.0000      -0.528893       -14.3919 
  52   2.0000      -0.520051       -14.1513 
  53   2.0000      -0.513225       -13.9656 
  54   2.0000      -0.500684       -13.6243 
  55   2.0000      -0.497373       -13.5342 
  56   2.0000      -0.490866       -13.3571 
  57   2.0000      -0.484079       -13.1725 
  58   2.0000      -0.473272       -12.8784 
  59   2.0000      -0.470374       -12.7995 
  60   2.0000      -0.470191       -12.7945 
  61   2.0000      -0.451337       -12.2815 
  62   2.0000      -0.446539       -12.1509 
  63   2.0000      -0.432692       -11.7741 
  64   2.0000      -0.431216       -11.7340 
  65   2.0000      -0.410365       -11.1666 
  66   2.0000      -0.408466       -11.1149 
  67   2.0000      -0.396364       -10.7856 
  68   2.0000      -0.390531       -10.6269 
  69   2.0000      -0.387370       -10.5409 
  70   2.0000      -0.340077        -9.2540 
  71   2.0000      -0.334206        -9.0942 
  72   2.0000      -0.318908        -8.6779 
  73   2.0000      -0.316122        -8.6021 
  74   2.0000      -0.260540        -7.0897 
  75   2.0000      -0.258466        -7.0332 
  76   2.0000      -0.213495        -5.8095 
  77   0.0000      -0.165957        -4.5159 
  78   0.0000      -0.044550        -1.2123 
  79   0.0000      -0.042345        -1.1523 
  80   0.0000      -0.001928        -0.0525 
  81   0.0000      -0.001089        -0.0296 
  82   0.0000       0.016521         0.4495 
  83   0.0000       0.049800         1.3551 
  84   0.0000       0.077413         2.1065 
  85   0.0000       0.082277         2.2389 
  86   0.0000       0.086730         2.3600 
  87   0.0000       0.088896         2.4190 
  88   0.0000       0.097060         2.6411 
  89   0.0000       0.110946         3.0190 
  90   0.0000       0.113189         3.0800 
  91   0.0000       0.116526         3.1708 
  92   0.0000       0.117951         3.2096 
  93   0.0000       0.120173         3.2701 
  94   0.0000       0.124580         3.3900 
  95   0.0000       0.135016         3.6740 
  96   0.0000       0.137381         3.7383 
  97   0.0000       0.143541         3.9059 
  98   0.0000       0.148249         4.0340 
  99   0.0000       0.167611         4.5609 
 100   0.0000       0.176404         4.8002 
 101   0.0000       0.178782         4.8649 
 102   0.0000       0.187467         5.1012 
 103   0.0000       0.190306         5.1785 
 104   0.0000       0.192611         5.2412 
 105   0.0000       0.199749         5.4355 
 106   0.0000       0.204949         5.5770 
 107   0.0000       0.209543         5.7019 
 108   0.0000       0.216541         5.8924 
 109   0.0000       0.224959         6.1214 
 110   0.0000       0.231653         6.3036 
 111   0.0000       0.234011         6.3678 
 112   0.0000       0.235255         6.4016 
 113   0.0000       0.243206         6.6180 
 114   0.0000       0.250473         6.8157 
 115   0.0000       0.260983         7.1017 
 116   0.0000       0.261691         7.1210 
 117   0.0000       0.264089         7.1862 
 118   0.0000       0.268240         7.2992 
 119   0.0000       0.272264         7.4087 
 120   0.0000       0.281710         7.6657 
 121   0.0000       0.281966         7.6727 
 122   0.0000       0.282506         7.6874 
 123   0.0000       0.284499         7.7416 
 124   0.0000       0.288719         7.8564 
 125   0.0000       0.294615         8.0169 
 126   0.0000       0.295719         8.0469 
 127   0.0000       0.302522         8.2320 
 128   0.0000       0.304374         8.2824 
 129   0.0000       0.310034         8.4365 
 130   0.0000       0.317131         8.6296 
 131   0.0000       0.317564         8.6414 
 132   0.0000       0.318744         8.6735 
 133   0.0000       0.319445         8.6925 
 134   0.0000       0.324740         8.8366 
 135   0.0000       0.332657         9.0521 
 136   0.0000       0.339651         9.2424 
 137   0.0000       0.342317         9.3149 
 138   0.0000       0.352609         9.5950 
 139   0.0000       0.353307         9.6140 
 140   0.0000       0.356796         9.7089 
 141   0.0000       0.357864         9.7380 
 142   0.0000       0.359596         9.7851 
 143   0.0000       0.370003        10.0683 
 144   0.0000       0.376422        10.2430 
 145   0.0000       0.380269        10.3476 
 146   0.0000       0.381783        10.3889 
 147   0.0000       0.381904        10.3921 
 148   0.0000       0.383799        10.4437 
 149   0.0000       0.385540        10.4911 
 150   0.0000       0.387801        10.5526 
 151   0.0000       0.389970        10.6116 
 152   0.0000       0.403545        10.9810 
 153   0.0000       0.409012        11.1298 
 154   0.0000       0.410905        11.1813 
 155   0.0000       0.413004        11.2384 
 156   0.0000       0.418846        11.3974 
 157   0.0000       0.422223        11.4893 
 158   0.0000       0.426143        11.5959 
 159   0.0000       0.435715        11.8564 
 160   0.0000       0.438482        11.9317 
 161   0.0000       0.446823        12.1587 
 162   0.0000       0.449551        12.2329 
 163   0.0000       0.455088        12.3836 
 164   0.0000       0.456826        12.4309 
 165   0.0000       0.460446        12.5294 
 166   0.0000       0.465512        12.6672 
 167   0.0000       0.470591        12.8054 
 168   0.0000       0.473926        12.8962 
 169   0.0000       0.476020        12.9532 
 170   0.0000       0.479131        13.0378 
 171   0.0000       0.497035        13.5250 
 172   0.0000       0.507144        13.8001 
 173   0.0000       0.507657        13.8141 
 174   0.0000       0.510705        13.8970 
 175   0.0000       0.512844        13.9552 
 176   0.0000       0.513630        13.9766 
 177   0.0000       0.521281        14.1848 
 178   0.0000       0.528055        14.3691 
 179   0.0000       0.529345        14.4042 
 180   0.0000       0.544010        14.8033 
 181   0.0000       0.544084        14.8053 
 182   0.0000       0.545343        14.8395 
 183   0.0000       0.548425        14.9234 
 184   0.0000       0.552744        15.0409 
 185   0.0000       0.553965        15.0742 
 186   0.0000       0.570554        15.5256 
 187   0.0000       0.573244        15.5988 
 188   0.0000       0.576657        15.6916 
 189   0.0000       0.580875        15.8064 
 190   0.0000       0.588822        16.0227 
 191   0.0000       0.602319        16.3899 
 192   0.0000       0.615491        16.7484 
 193   0.0000       0.629999        17.1432 
 194   0.0000       0.630882        17.1672 
 195   0.0000       0.634402        17.2630 
 196   0.0000       0.634735        17.2720 
 197   0.0000       0.635067        17.2811 
 198   0.0000       0.641789        17.4640 
 199   0.0000       0.646053        17.5800 
 200   0.0000       0.651220        17.7206 
 201   0.0000       0.655345        17.8328 
 202   0.0000       0.659634        17.9495 
 203   0.0000       0.662623        18.0309 
 204   0.0000       0.667746        18.1703 
 205   0.0000       0.669496        18.2179 
 206   0.0000       0.675923        18.3928 
 207   0.0000       0.682590        18.5742 
 208   0.0000       0.685848        18.6629 
 209   0.0000       0.688057        18.7230 
 210   0.0000       0.697664        18.9844 
 211   0.0000       0.698260        19.0006 
 212   0.0000       0.705637        19.2013 
 213   0.0000       0.722630        19.6638 
 214   0.0000       0.723913        19.6987 
 215   0.0000       0.728209        19.8156 
 216   0.0000       0.739208        20.1149 
 217   0.0000       0.746303        20.3079 
 218   0.0000       0.749681        20.3999 
 219   0.0000       0.764004        20.7896 
 220   0.0000       0.764876        20.8133 
 221   0.0000       0.765574        20.8323 
 222   0.0000       0.766211        20.8497 
 223   0.0000       0.773671        21.0527 
 224   0.0000       0.780069        21.2268 
 225   0.0000       0.782071        21.2812 
 226   0.0000       0.783463        21.3191 
 227   0.0000       0.786403        21.3991 
 228   0.0000       0.790775        21.5181 
 229   0.0000       0.792023        21.5521 
 230   0.0000       0.799933        21.7673 
 231   0.0000       0.801957        21.8224 
 232   0.0000       0.806957        21.9584 
 233   0.0000       0.823309        22.4034 
 234   0.0000       0.825040        22.4505 
 235   0.0000       0.830926        22.6106 
 236   0.0000       0.833101        22.6698 
 237   0.0000       0.837560        22.7912 
 238   0.0000       0.843707        22.9584 
 239   0.0000       0.850755        23.1502 
 240   0.0000       0.861230        23.4353 
 241   0.0000       0.863759        23.5041 
 242   0.0000       0.863770        23.5044 
 243   0.0000       0.873800        23.7773 
 244   0.0000       0.874962        23.8089 
 245   0.0000       0.886785        24.1306 
 246   0.0000       0.889967        24.2172 
 247   0.0000       0.895103        24.3570 
 248   0.0000       0.895664        24.3723 
 249   0.0000       0.899615        24.4798 
 250   0.0000       0.905493        24.6397 
 251   0.0000       0.910678        24.7808 
 252   0.0000       0.917525        24.9671 
 253   0.0000       0.921305        25.0700 
 254   0.0000       0.924316        25.1519 
 255   0.0000       0.936779        25.4910 
 256   0.0000       0.949583        25.8395 
 257   0.0000       0.951359        25.8878 
 258   0.0000       0.955939        26.0124 
 259   0.0000       0.972006        26.4496 
 260   0.0000       0.984674        26.7943 
 261   0.0000       0.996173        27.1072 
 262   0.0000       0.996352        27.1121 
 263   0.0000       1.017523        27.6882 
 264   0.0000       1.018499        27.7148 
 265   0.0000       1.019697        27.7474 
 266   0.0000       1.021961        27.8090 
 267   0.0000       1.051365        28.6091 
 268   0.0000       1.054385        28.6913 
 269   0.0000       1.055048        28.7093 
 270   0.0000       1.067055        29.0360 
 271   0.0000       1.075022        29.2528 
 272   0.0000       1.076901        29.3040 
 273   0.0000       1.087502        29.5924 
 274   0.0000       1.092659        29.7328 
 275   0.0000       1.099975        29.9318 
 276   0.0000       1.108431        30.1619 
 277   0.0000       1.113963        30.3125 
 278   0.0000       1.120621        30.4937 
 279   0.0000       1.129919        30.7466 
 280   0.0000       1.135277        30.8925 
 281   0.0000       1.136913        30.9370 
 282   0.0000       1.195145        32.5215 
 283   0.0000       1.198638        32.6166 
 284   0.0000       1.198909        32.6240 
 285   0.0000       1.201717        32.7004 
 286   0.0000       1.212402        32.9911 
 287   0.0000       1.223945        33.3052 
 288   0.0000       1.228784        33.4369 
 289   0.0000       1.230600        33.4863 
 290   0.0000       1.243259        33.8308 
 291   0.0000       1.244046        33.8522 
 292   0.0000       1.245752        33.8986 
 293   0.0000       1.246265        33.9126 
 294   0.0000       1.257061        34.2064 
 295   0.0000       1.270780        34.5797 
 296   0.0000       1.276387        34.7322 
 297   0.0000       1.276454        34.7341 
 298   0.0000       1.285123        34.9700 
 299   0.0000       1.286470        35.0066 
 300   0.0000       1.292806        35.1790 
 301   0.0000       1.297821        35.3155 
 302   0.0000       1.300695        35.3937 
 303   0.0000       1.308303        35.6007 
 304   0.0000       1.319588        35.9078 
 305   0.0000       1.321292        35.9542 
 306   0.0000       1.335132        36.3308 
 307   0.0000       1.342709        36.5370 
 308   0.0000       1.358425        36.9646 
 309   0.0000       1.363073        37.0911 
 310   0.0000       1.368922        37.2503 
 311   0.0000       1.370132        37.2832 
 312   0.0000       1.370813        37.3017 
 313   0.0000       1.374519        37.4026 
 314   0.0000       1.389417        37.8080 
 315   0.0000       1.394563        37.9480 
 316   0.0000       1.396831        38.0097 
 317   0.0000       1.406028        38.2600 
 318   0.0000       1.413733        38.4696 
 319   0.0000       1.414192        38.4821 
 320   0.0000       1.414211        38.4826 
 321   0.0000       1.422813        38.7167 
 322   0.0000       1.431465        38.9521 
 323   0.0000       1.454982        39.5921 
 324   0.0000       1.463822        39.8326 
 325   0.0000       1.472190        40.0603 
 326   0.0000       1.488392        40.5012 
 327   0.0000       1.490663        40.5630 
 328   0.0000       1.491140        40.5760 
 329   0.0000       1.493439        40.6385 
 330   0.0000       1.503068        40.9005 
 331   0.0000       1.512678        41.1621 
 332   0.0000       1.519546        41.3489 
 333   0.0000       1.523451        41.4552 
 334   0.0000       1.537240        41.8304 
 335   0.0000       1.539625        41.8953 
 336   0.0000       1.544496        42.0279 
 337   0.0000       1.546283        42.0765 
 338   0.0000       1.556912        42.3657 
 339   0.0000       1.565631        42.6030 
 340   0.0000       1.568928        42.6927 
 341   0.0000       1.570778        42.7430 
 342   0.0000       1.575141        42.8618 
 343   0.0000       1.585718        43.1496 
 344   0.0000       1.591329        43.3023 
 345   0.0000       1.608582        43.7717 
 346   0.0000       1.621123        44.1130 
 347   0.0000       1.624854        44.2145 
 348   0.0000       1.631627        44.3988 
 349   0.0000       1.635226        44.4968 
 350   0.0000       1.639734        44.6194 
 351   0.0000       1.647661        44.8351 
 352   0.0000       1.649487        44.8848 
 353   0.0000       1.652430        44.9649 
 354   0.0000       1.653240        44.9869 
 355   0.0000       1.654446        45.0198 
 356   0.0000       1.663108        45.2555 
 357   0.0000       1.664333        45.2888 
 358   0.0000       1.703809        46.3630 
 359   0.0000       1.713936        46.6386 
 360   0.0000       1.721203        46.8363 
 361   0.0000       1.723183        46.8902 
 362   0.0000       1.726145        46.9708 
 363   0.0000       1.729529        47.0629 
 364   0.0000       1.731670        47.1211 
 365   0.0000       1.732618        47.1469 
 366   0.0000       1.742538        47.4169 
 367   0.0000       1.749140        47.5965 
 368   0.0000       1.749455        47.6051 
 369   0.0000       1.757201        47.8159 
 370   0.0000       1.765464        48.0407 
 371   0.0000       1.768800        48.1315 
 372   0.0000       1.771437        48.2033 
 373   0.0000       1.778419        48.3932 
 374   0.0000       1.786597        48.6158 
 375   0.0000       1.794575        48.8329 
 376   0.0000       1.809003        49.2255 
 377   0.0000       1.827276        49.7227 
 378   0.0000       1.829036        49.7706 
 379   0.0000       1.855123        50.4805 
 380   0.0000       1.876524        51.0628 
 381   0.0000       1.881971        51.2110 
 382   0.0000       1.885726        51.3132 
 383   0.0000       1.901702        51.7479 
 384   0.0000       1.910290        51.9816 
 385   0.0000       1.921787        52.2945 
 386   0.0000       1.924036        52.3557 
 387   0.0000       1.935520        52.6682 
 388   0.0000       1.950401        53.0731 
 389   0.0000       1.961336        53.3707 
 390   0.0000       1.965230        53.4766 
[...]

Temperature         ... 8000.00 K
Pressure            ... 1.00 atm
Total Mass          ... 298.34 AMU

Throughout the following assumptions are being made:
  (1) The electronic state is orbitally nondegenerate
  (2) There are no thermally accessible electronically excited states
  (3) Hindered rotations indicated by low frequency modes are not
      treated as such but are treated as vibrations and this may
      cause some error
  (4) All equations used are the standard statistical mechanics
      equations for an ideal gas
  (5) All vibrations are strictly harmonic

freq.      28.64  E(vib)   ...      15.86 
freq.      86.09  E(vib)   ...      15.78 
freq.      93.22  E(vib)   ...      15.77 
freq.     135.77  E(vib)   ...      15.70 
freq.     200.10  E(vib)   ...      15.61 
freq.     247.20  E(vib)   ...      15.55 
freq.     290.80  E(vib)   ...      15.49 
freq.     298.19  E(vib)   ...      15.48 
freq.     303.59  E(vib)   ...      15.47 
freq.     367.50  E(vib)   ...      15.38 
freq.     371.23  E(vib)   ...      15.37 
freq.     383.96  E(vib)   ...      15.36 
freq.     387.96  E(vib)   ...      15.35 
freq.     426.27  E(vib)   ...      15.30 
freq.     438.66  E(vib)   ...      15.28 
freq.     464.65  E(vib)   ...      15.24 
freq.     473.52  E(vib)   ...      15.23 
freq.     492.90  E(vib)   ...      15.20 
freq.     495.42  E(vib)   ...      15.20 
freq.     503.72  E(vib)   ...      15.19 
freq.     520.22  E(vib)   ...      15.17 
freq.     560.27  E(vib)   ...      15.11 
freq.     570.64  E(vib)   ...      15.10 
freq.     582.96  E(vib)   ...      15.08 
freq.     601.21  E(vib)   ...      15.05 
freq.     640.15  E(vib)   ...      15.00 
freq.     658.84  E(vib)   ...      14.97 
freq.     663.11  E(vib)   ...      14.97 
freq.     680.75  E(vib)   ...      14.94 
freq.     688.80  E(vib)   ...      14.93 
freq.     730.90  E(vib)   ...      14.88 
freq.     774.56  E(vib)   ...      14.82 
freq.     775.84  E(vib)   ...      14.81 
freq.     780.91  E(vib)   ...      14.81 
freq.     796.27  E(vib)   ...      14.79 
freq.     826.34  E(vib)   ...      14.75 
freq.     830.55  E(vib)   ...      14.74 
freq.     835.19  E(vib)   ...      14.73 
freq.     844.11  E(vib)   ...      14.72 
freq.     869.73  E(vib)   ...      14.69 
freq.     881.90  E(vib)   ...      14.67 
freq.     884.16  E(vib)   ...      14.67 
freq.     924.22  E(vib)   ...      14.61 
freq.     944.77  E(vib)   ...      14.59 
freq.     979.18  E(vib)   ...      14.54 
freq.     983.49  E(vib)   ...      14.53 
freq.     990.49  E(vib)   ...      14.52 
freq.     992.75  E(vib)   ...      14.52 
freq.    1000.53  E(vib)   ...      14.51 
freq.    1011.50  E(vib)   ...      14.50 
freq.    1052.43  E(vib)   ...      14.44 
freq.    1128.39  E(vib)   ...      14.34 
freq.    1138.65  E(vib)   ...      14.33 
freq.    1164.26  E(vib)   ...      14.29 
freq.    1174.70  E(vib)   ...      14.28 
freq.    1190.90  E(vib)   ...      14.26 
freq.    1196.29  E(vib)   ...      14.25 
freq.    1211.53  E(vib)   ...      14.23 
freq.    1235.74  E(vib)   ...      14.20 
freq.    1238.22  E(vib)   ...      14.19 
freq.    1248.96  E(vib)   ...      14.18 
freq.    1253.20  E(vib)   ...      14.17 
freq.    1282.15  E(vib)   ...      14.14 
freq.    1302.20  E(vib)   ...      14.11 
freq.    1328.75  E(vib)   ...      14.07 
freq.    1365.75  E(vib)   ...      14.03 
freq.    1375.89  E(vib)   ...      14.01 
freq.    1387.99  E(vib)   ...      14.00 
freq.    1403.98  E(vib)   ...      13.98 
freq.    1423.93  E(vib)   ...      13.95 
freq.    1441.61  E(vib)   ...      13.93 
freq.    1445.52  E(vib)   ...      13.92 
freq.    1470.00  E(vib)   ...      13.89 
freq.    1478.99  E(vib)   ...      13.88 
freq.    1483.97  E(vib)   ...      13.87 
freq.    1529.55  E(vib)   ...      13.81 
freq.    1534.47  E(vib)   ...      13.81 
freq.    1540.08  E(vib)   ...      13.80 
freq.    1569.89  E(vib)   ...      13.76 
freq.    1600.10  E(vib)   ...      13.72 
freq.    1638.38  E(vib)   ...      13.67 
freq.    1671.86  E(vib)   ...      13.63 
freq.    1677.31  E(vib)   ...      13.62 
freq.    1684.61  E(vib)   ...      13.61 
freq.    1694.47  E(vib)   ...      13.60 
freq.    3164.88  E(vib)   ...      11.80 
freq.    3178.42  E(vib)   ...      11.78 
freq.    3203.81  E(vib)   ...      11.76 
freq.    3205.04  E(vib)   ...      11.75 
freq.    3210.55  E(vib)   ...      11.75 
freq.    3212.32  E(vib)   ...      11.75 
freq.    3221.10  E(vib)   ...      11.74 
freq.    3222.04  E(vib)   ...      11.73 
freq.    3238.94  E(vib)   ...      11.71 
freq.    3246.64  E(vib)   ...      11.71 

------------
INNER ENERGY
------------

The inner energy is: U= E(el) + E(ZPE) + E(vib) + E(rot) + E(trans)
    E(el)   - is the total energy from the electronic structure calculation
              = E(kin-el) + E(nuc-el) + E(el-el) + E(nuc-nuc)
    E(ZPE)  - the the zero temperature vibrational energy from the frequency calculation
    E(vib)  - the the finite temperature correction to E(ZPE) due to population
              of excited vibrational states
    E(rot)  - is the rotational thermal energy
    E(trans)- is the translational thermal energy

Summary of contributions to the inner energy U:
Electronic energy                ...   -920.37194899 Eh
Zero point energy                ...      0.25283609 Eh     158.66 kcal/mol
Thermal vibrational correction   ...      2.16718426 Eh    1359.93 kcal/mol
Thermal rotational correction    ...      0.03800158 Eh      23.85 kcal/mol
Thermal translational correction ...      0.03800158 Eh      23.85 kcal/mol
-----------------------------------------------------------------------
Total thermal energy                   -917.87592548 Eh


Summary of corrections to the electronic energy:
(perhaps to be used in another calculation)
Total thermal correction                  2.24318742 Eh    1407.62 kcal/mol
Non-thermal (ZPE) correction              0.25283609 Eh     158.66 kcal/mol
-----------------------------------------------------------------------
Total correction                          2.49602351 Eh    1566.27 kcal/mol


--------
ENTHALPY
--------

The enthalpy is H = U + kB*T
                kB is Boltzmann's constant
Total free energy                 ...   -917.87592548 Eh 
Thermal Enthalpy correction       ...      0.02533514 Eh      15.90 kcal/mol
-----------------------------------------------------------------------
Total Enthalpy                    ...   -917.85059034 Eh


Note: Only C1 symmetry has been detected, increase convergence thresholds 
      if your molecule has a higher symmetry. Symmetry factor of 1.0 is   
      used for the rotational entropy correction. 
 

Note: Rotational entropy computed according to Herzberg 
Infrared and Raman Spectra, Chapter V,1, Van Nostrand Reinhold, 1945 
Point Group:  C1, Symmetry Number:   1  
Rotational constants in cm-1:     0.011571     0.011250     0.005704 

Vibrational entropy computed according to the QRRHO of S. Grimme
Chem.Eur.J. 2012 18 9955


-------
ENTROPY
-------

The entropy contributions are T*S = T*(S(el)+S(vib)+S(rot)+S(trans))
     S(el)   - electronic entropy
     S(vib)  - vibrational entropy
     S(rot)  - rotational entropy
     S(trans)- translational entropy
The entropies will be listed as multiplied by the temperature to get
units of energy

Electronic entropy                ...      0.00000000 Eh      0.00 kcal/mol
Vibrational entropy               ...      6.67489129 Eh   4188.55 kcal/mol
Rotational entropy                ...      0.55897875 Eh    350.76 kcal/mol
Translational entropy             ...      0.75624431 Eh    474.55 kcal/mol
-----------------------------------------------------------------------
Final entropy term                ...      7.99011435 Eh   5013.86 kcal/mol

In case the symmetry of your molecule has not been determined correctly
or in case you have a reason to use a different symmetry number we print 
out the resulting rotational entropy values for sn=1,12 :
 --------------------------------------------------------
|  sn= 1 | S(rot)=       0.55897875 Eh    350.76 kcal/mol|
|  sn= 2 | S(rot)=       0.54141829 Eh    339.74 kcal/mol|
|  sn= 3 | S(rot)=       0.53114608 Eh    333.30 kcal/mol|
|  sn= 4 | S(rot)=       0.52385783 Eh    328.73 kcal/mol|
|  sn= 5 | S(rot)=       0.51820462 Eh    325.18 kcal/mol|
|  sn= 6 | S(rot)=       0.51358562 Eh    322.28 kcal/mol|
|  sn= 7 | S(rot)=       0.50968030 Eh    319.83 kcal/mol|
|  sn= 8 | S(rot)=       0.50629737 Eh    317.71 kcal/mol|
|  sn= 9 | S(rot)=       0.50331341 Eh    315.83 kcal/mol|
|  sn=10 | S(rot)=       0.50064416 Eh    314.16 kcal/mol|
|  sn=11 | S(rot)=       0.49822954 Eh    312.64 kcal/mol|
|  sn=12 | S(rot)=       0.49602516 Eh    311.26 kcal/mol|
 --------------------------------------------------------


-------------------
GIBBS FREE ENERGY
-------------------

The Gibbs free energy is G = H - T*S

Total enthalpy                    ...   -917.85059034 Eh 
Total entropy correction          ...     -7.99011435 Eh  -5013.86 kcal/mol
-----------------------------------------------------------------------
Final Gibbs free energy         ...   -925.84070469 Eh

For completeness - the Gibbs free energy minus the electronic energy
G-E(el)                           ...     -5.46875570 Eh  -3431.69 kcal/mol


The first frequency considered to be a vibration is 7
The total number of vibrations considered is 95


--------------------------
THERMOCHEMISTRY AT 10000.00K
--------------------------

Temperature         ... 10000.00 K
Pressure            ... 1.00 atm
Total Mass          ... 298.34 AMU

Throughout the following assumptions are being made:
  (1) The electronic state is orbitally nondegenerate
  (2) There are no thermally accessible electronically excited states
  (3) Hindered rotations indicated by low frequency modes are not
      treated as such but are treated as vibrations and this may
      cause some error
  (4) All equations used are the standard statistical mechanics
      equations for an ideal gas
  (5) All vibrations are strictly harmonic

freq.      28.64  E(vib)   ...      19.83 
freq.      86.09  E(vib)   ...      19.75 
freq.      93.22  E(vib)   ...      19.74 
freq.     135.77  E(vib)   ...      19.68 
freq.     200.10  E(vib)   ...      19.59 
freq.     247.20  E(vib)   ...      19.52 
freq.     290.80  E(vib)   ...      19.46 
freq.     298.19  E(vib)   ...      19.45 
freq.     303.59  E(vib)   ...      19.44 
freq.     367.50  E(vib)   ...      19.35 
freq.     371.23  E(vib)   ...      19.35 
freq.     383.96  E(vib)   ...      19.33 
freq.     387.96  E(vib)   ...      19.32 
freq.     426.27  E(vib)   ...      19.27 
freq.     438.66  E(vib)   ...      19.25 
freq.     464.65  E(vib)   ...      19.22 
freq.     473.52  E(vib)   ...      19.20 
freq.     492.90  E(vib)   ...      19.18 
freq.     495.42  E(vib)   ...      19.17 
freq.     503.72  E(vib)   ...      19.16 
freq.     520.22  E(vib)   ...      19.14 
freq.     560.27  E(vib)   ...      19.08 
freq.     570.64  E(vib)   ...      19.07 
freq.     582.96  E(vib)   ...      19.05 
freq.     601.21  E(vib)   ...      19.03 
freq.     640.15  E(vib)   ...      18.97 
freq.     658.84  E(vib)   ...      18.95 
freq.     663.11  E(vib)   ...      18.94 
freq.     680.75  E(vib)   ...      18.92 
freq.     688.80  E(vib)   ...      18.90 
freq.     730.90  E(vib)   ...      18.85 
freq.     774.56  E(vib)   ...      18.79 
freq.     775.84  E(vib)   ...      18.78 
freq.     780.91  E(vib)   ...      18.78 
freq.     796.27  E(vib)   ...      18.76 
freq.     826.34  E(vib)   ...      18.71 
freq.     830.55  E(vib)   ...      18.71 
freq.     835.19  E(vib)   ...      18.70 
freq.     844.11  E(vib)   ...      18.69 
freq.     869.73  E(vib)   ...      18.66 
freq.     881.90  E(vib)   ...      18.64 
freq.     884.16  E(vib)   ...      18.64 
freq.     924.22  E(vib)   ...      18.58 
freq.     944.77  E(vib)   ...      18.55 
freq.     979.18  E(vib)   ...      18.51 
freq.     983.49  E(vib)   ...      18.50 
freq.     990.49  E(vib)   ...      18.49 
freq.     992.75  E(vib)   ...      18.49 
freq.    1000.53  E(vib)   ...      18.48 
freq.    1011.50  E(vib)   ...      18.46 
freq.    1052.43  E(vib)   ...      18.41 
freq.    1128.39  E(vib)   ...      18.30 
freq.    1138.65  E(vib)   ...      18.29 
freq.    1164.26  E(vib)   ...      18.25 
freq.    1174.70  E(vib)   ...      18.24 
freq.    1190.90  E(vib)   ...      18.22 
freq.    1196.29  E(vib)   ...      18.21 
freq.    1211.53  E(vib)   ...      18.19 
freq.    1235.74  E(vib)   ...      18.16 
freq.    1238.22  E(vib)   ...      18.15 
freq.    1248.96  E(vib)   ...      18.14 
freq.    1253.20  E(vib)   ...      18.13 
freq.    1282.15  E(vib)   ...      18.10 
freq.    1302.20  E(vib)   ...      18.07 
freq.    1328.75  E(vib)   ...      18.03 
freq.    1365.75  E(vib)   ...      17.98 
freq.    1375.89  E(vib)   ...      17.97 
freq.    1387.99  E(vib)   ...      17.95 
freq.    1403.98  E(vib)   ...      17.93 
freq.    1423.93  E(vib)   ...      17.91 
freq.    1441.61  E(vib)   ...      17.88 
freq.    1445.52  E(vib)   ...      17.88 
freq.    1470.00  E(vib)   ...      17.85 
freq.    1478.99  E(vib)   ...      17.83 
freq.    1483.97  E(vib)   ...      17.83 
freq.    1529.55  E(vib)   ...      17.77 
freq.    1534.47  E(vib)   ...      17.76 
freq.    1540.08  E(vib)   ...      17.75 
freq.    1569.89  E(vib)   ...      17.71 
freq.    1600.10  E(vib)   ...      17.67 
freq.    1638.38  E(vib)   ...      17.62 
freq.    1671.86  E(vib)   ...      17.58 
freq.    1677.31  E(vib)   ...      17.57 
freq.    1684.61  E(vib)   ...      17.56 
freq.    1694.47  E(vib)   ...      17.55 
freq.    3164.88  E(vib)   ...      15.69 
freq.    3178.42  E(vib)   ...      15.67 
freq.    3203.81  E(vib)   ...      15.64 
freq.    3205.04  E(vib)   ...      15.64 
freq.    3210.55  E(vib)   ...      15.63 
freq.    3212.32  E(vib)   ...      15.63 
freq.    3221.10  E(vib)   ...      15.62 
freq.    3222.04  E(vib)   ...      15.62 
freq.    3238.94  E(vib)   ...      15.60 
freq.    3246.64  E(vib)   ...      15.59 

------------
INNER ENERGY
------------

The inner energy is: U= E(el) + E(ZPE) + E(vib) + E(rot) + E(trans)
    E(el)   - is the total energy from the electronic structure calculation
              = E(kin-el) + E(nuc-el) + E(el-el) + E(nuc-nuc)
    E(ZPE)  - the the zero temperature vibrational energy from the frequency calculation
    E(vib)  - the the finite temperature correction to E(ZPE) due to population
              of excited vibrational states
    E(rot)  - is the rotational thermal energy
    E(trans)- is the translational thermal energy

Summary of contributions to the inner energy U:
Electronic energy                ...   -920.37194899 Eh
Zero point energy                ...      0.25283609 Eh     158.66 kcal/mol
Thermal vibrational correction   ...      2.76627026 Eh    1735.86 kcal/mol
Thermal rotational correction    ...      0.04750198 Eh      29.81 kcal/mol
Thermal translational correction ...      0.04750198 Eh      29.81 kcal/mol
-----------------------------------------------------------------------
Total thermal energy                   -917.25783869 Eh


Summary of corrections to the electronic energy:
(perhaps to be used in another calculation)
Total thermal correction                  2.86127421 Eh    1795.47 kcal/mol
Non-thermal (ZPE) correction              0.25283609 Eh     158.66 kcal/mol
-----------------------------------------------------------------------
Total correction                          3.11411030 Eh    1954.13 kcal/mol


--------
ENTHALPY
--------

The enthalpy is H = U + kB*T
                kB is Boltzmann's constant
Total free energy                 ...   -917.25783869 Eh 
Thermal Enthalpy correction       ...      0.03166893 Eh      19.87 kcal/mol
-----------------------------------------------------------------------
Total Enthalpy                    ...   -917.22616976 Eh


Note: Only C1 symmetry has been detected, increase convergence thresholds 
      if your molecule has a higher symmetry. Symmetry factor of 1.0 is   
      used for the rotational entropy correction. 
 

Note: Rotational entropy computed according to Herzberg 
Infrared and Raman Spectra, Chapter V,1, Van Nostrand Reinhold, 1945 
Point Group:  C1, Symmetry Number:   1  
Rotational constants in cm-1:     0.011571     0.011250     0.005704 

Vibrational entropy computed according to the QRRHO of S. Grimme
Chem.Eur.J. 2012 18 9955


-------
ENTROPY
-------

The entropy contributions are T*S = T*(S(el)+S(vib)+S(rot)+S(trans))
     S(el)   - electronic entropy
     S(vib)  - vibrational entropy
     S(rot)  - rotational entropy
     S(trans)- translational entropy
The entropies will be listed as multiplied by the temperature to get
units of energy

Electronic entropy                ...      0.00000000 Eh      0.00 kcal/mol
Vibrational entropy               ...      9.00277649 Eh   5649.32 kcal/mol
Rotational entropy                ...      0.70932319 Eh    445.11 kcal/mol
Translational entropy             ...      0.96297166 Eh    604.27 kcal/mol
-----------------------------------------------------------------------
Final entropy term                ...     10.67507134 Eh   6698.69 kcal/mol

In case the symmetry of your molecule has not been determined correctly
or in case you have a reason to use a different symmetry number we print 
out the resulting rotational entropy values for sn=1,12 :
 --------------------------------------------------------
|  sn= 1 | S(rot)=       0.70932319 Eh    445.11 kcal/mol|
|  sn= 2 | S(rot)=       0.68737262 Eh    431.33 kcal/mol|
|  sn= 3 | S(rot)=       0.67453236 Eh    423.27 kcal/mol|
|  sn= 4 | S(rot)=       0.66542204 Eh    417.56 kcal/mol|
|  sn= 5 | S(rot)=       0.65835554 Eh    413.12 kcal/mol|
|  sn= 6 | S(rot)=       0.65258178 Eh    409.50 kcal/mol|
|  sn= 7 | S(rot)=       0.64770014 Eh    406.44 kcal/mol|
|  sn= 8 | S(rot)=       0.64347147 Eh    403.78 kcal/mol|
|  sn= 9 | S(rot)=       0.63974152 Eh    401.44 kcal/mol|
|  sn=10 | S(rot)=       0.63640496 Eh    399.35 kcal/mol|
|  sn=11 | S(rot)=       0.63338668 Eh    397.46 kcal/mol|
|  sn=12 | S(rot)=       0.63063121 Eh    395.73 kcal/mol|
 --------------------------------------------------------


-------------------
GIBBS FREE ENERGY
-------------------

The Gibbs free energy is G = H - T*S

Total enthalpy                    ...   -917.22616976 Eh 
Total entropy correction          ...    -10.67507134 Eh  -6698.69 kcal/mol
-----------------------------------------------------------------------
Final Gibbs free energy         ...   -927.90124110 Eh

For completeness - the Gibbs free energy minus the electronic energy
G-E(el)                           ...     -7.52929211 Eh  -4724.69 kcal/mol


Timings for individual modules:

Sum of individual times         ...    26966.077 sec (= 449.435 min)
GTO integral calculation        ...       30.499 sec (=   0.508 min)   0.1 %
SCF iterations                  ...     5521.951 sec (=  92.033 min)  20.5 %
SCF Gradient evaluation         ...     1410.742 sec (=  23.512 min)   5.2 %
Geometry relaxation             ...        2.462 sec (=   0.041 min)   0.0 %
Analytical frequency calculation...    20000.423 sec (= 333.340 min)  74.2 %
                             ****ORCA TERMINATED NORMALLY****
TOTAL RUN TIME: 0 days 7 hours 29 minutes 35 seconds 102 msec
