
                                 *****************
                                 * O   R   C   A *
                                 *****************

                                            #,                                       
                                            ###                                      
                                            ####                                     
                                            #####                                    
                                            ######                                   
                                           ########,                                 
                                     ,,################,,,,,                         
                               ,,#################################,,                 
                          ,,##########################################,,             
                       ,#########################################, ''#####,          
                    ,#############################################,,   '####,        
                  ,##################################################,,,,####,       
                ,###########''''           ''''###############################       
              ,#####''   ,,,,##########,,,,          '''####'''          '####       
            ,##' ,,,,###########################,,,                        '##       
           ' ,,###''''                  '''############,,,                           
         ,,##''                                '''############,,,,        ,,,,,,###''
      ,#''                                            '''#######################'''  
     '                                                          ''''####''''         
             ,#######,   #######,   ,#######,      ##                                
            ,#'     '#,  ##    ##  ,#'     '#,    #''#        ######   ,####,        
            ##       ##  ##   ,#'  ##            #'  '#       #        #'  '#        
            ##       ##  #######   ##           ,######,      #####,   #    #        
            '#,     ,#'  ##    ##  '#,     ,#' ,#      #,         ##   #,  ,#        
             '#######'   ##     ##  '#######'  #'      '#     #####' # '####'        



                  #######################################################
                  #                        -***-                        #
                  #          Department of theory and spectroscopy      #
                  #    Directorship and core code : Frank Neese         #
                  #        Max Planck Institute fuer Kohlenforschung    #
                  #                Kaiser Wilhelm Platz 1               #
                  #                 D-45470 Muelheim/Ruhr               #
                  #                      Germany                        #
                  #                                                     #
                  #                  All rights reserved                #
                  #                        -***-                        #
                  #######################################################



                         Program Version 5.0.4 -  RELEASE  -

 With contributions from (in alphabetic order):
   Daniel Aravena         : Magnetic Suceptibility
   Michael Atanasov       : Ab Initio Ligand Field Theory (pilot matlab implementation)
   Alexander A. Auer      : GIAO ZORA, VPT2 properties, NMR spectrum
   Ute Becker             : Parallelization
   Giovanni Bistoni       : ED, misc. LED, open-shell LED, HFLD
   Martin Brehm           : Molecular dynamics
   Dmytro Bykov           : SCF Hessian
   Vijay G. Chilkuri      : MRCI spin determinant printing, contributions to CSF-ICE
   Dipayan Datta          : RHF DLPNO-CCSD density
   Achintya Kumar Dutta   : EOM-CC, STEOM-CC
   Dmitry Ganyushin       : Spin-Orbit,Spin-Spin,Magnetic field MRCI
   Miquel Garcia          : C-PCM and meta-GGA Hessian, CC/C-PCM, Gaussian charge scheme
   Yang Guo               : DLPNO-NEVPT2, F12-NEVPT2, CIM, IAO-localization
   Andreas Hansen         : Spin unrestricted coupled pair/coupled cluster methods
   Benjamin Helmich-Paris : MC-RPA, TRAH-SCF, COSX integrals
   Lee Huntington         : MR-EOM, pCC
   Robert Izsak           : Overlap fitted RIJCOSX, COSX-SCS-MP3, EOM
   Marcus Kettner         : VPT2
   Christian Kollmar      : KDIIS, OOCD, Brueckner-CCSD(T), CCSD density, CASPT2, CASPT2-K
   Simone Kossmann        : Meta GGA functionals, TD-DFT gradient, OOMP2, MP2 Hessian
   Martin Krupicka        : Initial AUTO-CI
   Lucas Lang             : DCDCAS
   Marvin Lechner         : AUTO-CI (C++ implementation), FIC-MRCC
   Dagmar Lenk            : GEPOL surface, SMD
   Dimitrios Liakos       : Extrapolation schemes; Compound Job, initial MDCI parallelization
   Dimitrios Manganas     : Further ROCIS development; embedding schemes
   Dimitrios Pantazis     : SARC Basis sets
   Anastasios Papadopoulos: AUTO-CI, single reference methods and gradients
   Taras Petrenko         : DFT Hessian,TD-DFT gradient, ASA, ECA, R-Raman, ABS, FL, XAS/XES, NRVS
   Peter Pinski           : DLPNO-MP2, DLPNO-MP2 Gradient
   Christoph Reimann      : Effective Core Potentials
   Marius Retegan         : Local ZFS, SOC
   Christoph Riplinger    : Optimizer, TS searches, QM/MM, DLPNO-CCSD(T), (RO)-DLPNO pert. Triples
   Tobias Risthaus        : Range-separated hybrids, TD-DFT gradient, RPA, STAB
   Michael Roemelt        : Original ROCIS implementation
   Masaaki Saitow         : Open-shell DLPNO-CCSD energy and density
   Barbara Sandhoefer     : DKH picture change effects
   Avijit Sen             : IP-ROCIS
   Kantharuban Sivalingam : CASSCF convergence, NEVPT2, FIC-MRCI
   Bernardo de Souza      : ESD, SOC TD-DFT
   Georgi Stoychev        : AutoAux, RI-MP2 NMR, DLPNO-MP2 response
   Willem Van den Heuvel  : Paramagnetic NMR
   Boris Wezisla          : Elementary symmetry handling
   Frank Wennmohs         : Technical directorship


 We gratefully acknowledge several colleagues who have allowed us to
 interface, adapt or use parts of their codes:
   Stefan Grimme, W. Hujo, H. Kruse, P. Pracht,  : VdW corrections, initial TS optimization,
                  C. Bannwarth, S. Ehlert          DFT functionals, gCP, sTDA/sTD-DF
   Ed Valeev, F. Pavosevic, A. Kumar             : LibInt (2-el integral package), F12 methods
   Garnet Chan, S. Sharma, J. Yang, R. Olivares  : DMRG
   Ulf Ekstrom                                   : XCFun DFT Library
   Mihaly Kallay                                 : mrcc  (arbitrary order and MRCC methods)
   Jiri Pittner, Ondrej Demel                    : Mk-CCSD
   Frank Weinhold                                : gennbo (NPA and NBO analysis)
   Christopher J. Cramer and Donald G. Truhlar   : smd solvation model
   Lars Goerigk                                  : TD-DFT with DH, B97 family of functionals
   V. Asgeirsson, H. Jonsson                     : NEB implementation
   FAccTs GmbH                                   : IRC, NEB, NEB-TS, DLPNO-Multilevel, CI-OPT
                                                   MM, QMMM, 2- and 3-layer-ONIOM, Crystal-QMMM,
                                                   LR-CPCM, SF, NACMEs, symmetry and pop. for TD-DFT,
                                                   nearIR, NL-DFT gradient (VV10), updates on ESD,
                                                   ML-optimized integration grids
   S Lehtola, MJT Oliveira, MAL Marques          : LibXC Library
   Liviu Ungur et al                             : ANISO software


 Your calculation uses the libint2 library for the computation of 2-el integrals
 For citations please refer to: http://libint.valeyev.net

 Your ORCA version has been built with support for libXC version: 5.1.0
 For citations please refer to: https://tddft.org/programs/libxc/

 This ORCA versions uses:
   CBLAS   interface :  Fast vector & matrix operations
   LAPACKE interface :  Fast linear algebra routines
   Shared memory     :  Shared parallel matrices


Your calculation utilizes the atom-pairwise dispersion correction
based on tight binding partial charges (D4)
Cite in your paper:
E.Caldeweyher, C.Bannwarth, S.Grimme, J.Chem.Phys., (2017), 147, 034112.
E.Caldeweyher, S.Ehlert, A.Hansen, H.Neugebauer, S.Grimme, J.Chem.Phys., (2018), in progress.
   

================================================================================

----- Orbital basis set information -----
Your calculation utilizes the basis: 6-311+G**
   H, Li - Ne  : R. Krishnan, J. S. Binkley, R. Seeger and J. A. Pople, J. Chem. Phys. 72, 650 (1980).
   Na - Ar     : A. D. McLean and G. S. Chandler J. Chem. Phys. 72, 5639, (1980).
   K  - Ca     : J.-P. Blaudeau, M. P. McGrath, L. A. Curtiss and L. Radom, J. Chem. Phys. 107, 5016 (1997).
   Ga - Kr     : L. A. Curtiss, M. P. McGrath, J.-P. Blandeau, N. E. Davis, R. C. Binning and L. Radom, J. Chem. Phys. 103, 6104 (1995).
   Pol./Diff.
   H, Li - Cl  : T. Clark, J. Chandrasekhar and P. v. R. Schleyer, J. Comp. Chem. 4, 294 (1983).
   H - Ne      : M. J. Frisch, J. A. Pople and J. S. Binkley, J. Chem. Phys. 80, 3265 (1984).

----- AuxJ basis set information -----
Your calculation utilizes the auxiliary basis: def2/J
   F. Weigend, Phys. Chem. Chem. Phys. 8, 1057 (2006).

================================================================================
                                        WARNINGS
                       Please study these warnings very carefully!
================================================================================

INFO   : Checking CIS options ...

WARNING: CIS/ROCIS methods need fully converged wavefunctions
  ===> : Setting SCFConvForced true
         You can overwrite this default with %scf ConvForced false 


INFO   : the flag for use of the SHARK integral package has been found!

================================================================================
                                       INPUT FILE
================================================================================
NAME = Stone-Wales_defect_loss_two.inp
|  1> !b3lyp 6-311+g** d4
|  2> 
|  3> %maxcore 5000
|  4> %pal
|  5> nprocs 8
|  6> end
|  7> 
|  8> %tddft
|  9>   nroots 1000
| 10>   end
| 11>   
| 12> * xyz 0 1
| 13>   C   2.72922398785092     -3.22717713924447      0.00420546946384
| 14>   C   1.53210761563431     -3.94899538833643      0.00346722574993
| 15>   C   0.43898813540805     -3.06545854993308      0.00435658727036
| 16>   C   -0.91420638238416     -3.47357975340582      0.00392314116028
| 17>   C   -2.08417794066505     -2.74792574710615      0.00463210074083
| 18>   C   -2.21589519247820     -1.33864847605241      0.00606823517449
| 19>   C   -3.42721203243697     -0.58489909137974      0.00682693530613
| 20>   C   -3.63269154293823      0.63256704043859      0.00808189313615
| 21>   C   -2.64963504567259      1.66337504713965      0.00914755895192
| 22>   C   -2.60902054976720      3.08113772522007      0.01059910703984
| 23>   C   -1.39750418959825      3.76754641069003      0.01128834149242
| 24>   C   -0.14169042702587      3.09312227699900      0.01059754915000
| 25>   C   1.18986175680845      3.61715126130430      0.01113371642785
| 26>   C   2.27236431726196      2.76760061162233      0.01028078242121
| 27>   C   2.17925408293259      1.32531307224632      0.00881779195898
| 28>   C   3.36273210892976      0.53033162865908      0.00803779959690
| 29>   C   3.45747913777517     -0.83907146516157      0.00665290062583
| 30>   C   2.46030138205757     -1.84707582241694      0.00560904177456
| 31>   C   0.30692826681385     -0.54207006945352      0.00690771354484
| 32>   C   -1.40822697751519      0.99327893784120      0.00846358545535
| 33>   C   -1.14991578657254     -0.39475297024606      0.00704481933758
| 34>   C   1.00653862888310     -1.71429406306906      0.00573519067327
| 35>   H   3.72240372880084     -3.65644717963206      0.00377310493039
| 36>   H   1.44695515311278     -5.02752669524466      0.00236714694579
| 37>   H   -1.04206600850987     -4.55351841463449      0.00282383072397
| 38>   H   -3.01185384471389     -3.30804831923796      0.00404488173914
| 39>   H   -3.53627683570670      3.64154266474936      0.01118264966946
| 40>   H   -1.41512387030060      4.85229504187488      0.01239722813246
| 41>   H   1.35375681848194      4.68967957230395      0.01222068283606
| 42>   H   3.26897425205786      3.19653401033664      0.01072518177087
| 43>   H   4.29968783147795      1.07875815282690      0.00860994871505
| 44>   H   4.47137229465145     -1.23278096368335      0.00627086723544
| 45>   C   0.88032034631760      0.80771433216342      0.00827609566335
| 46>   C   -0.19832321897084      1.70162232182202      0.00918089518544
| 47> **                         ****END OF INPUT****
================================================================================

                       ****************************
                       * Single Point Calculation *
                       ****************************

---------------------------------
CARTESIAN COORDINATES (ANGSTROEM)
---------------------------------
  C      2.729224   -3.227177    0.004205
  C      1.532108   -3.948995    0.003467
  C      0.438988   -3.065459    0.004357
  C     -0.914206   -3.473580    0.003923
  C     -2.084178   -2.747926    0.004632
  C     -2.215895   -1.338648    0.006068
  C     -3.427212   -0.584899    0.006827
  C     -3.632692    0.632567    0.008082
  C     -2.649635    1.663375    0.009148
  C     -2.609021    3.081138    0.010599
  C     -1.397504    3.767546    0.011288
  C     -0.141690    3.093122    0.010598
  C      1.189862    3.617151    0.011134
  C      2.272364    2.767601    0.010281
  C      2.179254    1.325313    0.008818
  C      3.362732    0.530332    0.008038
  C      3.457479   -0.839071    0.006653
  C      2.460301   -1.847076    0.005609
  C      0.306928   -0.542070    0.006908
  C     -1.408227    0.993279    0.008464
  C     -1.149916   -0.394753    0.007045
  C      1.006539   -1.714294    0.005735
  H      3.722404   -3.656447    0.003773
  H      1.446955   -5.027527    0.002367
  H     -1.042066   -4.553518    0.002824
  H     -3.011854   -3.308048    0.004045
  H     -3.536277    3.641543    0.011183
  H     -1.415124    4.852295    0.012397
  H      1.353757    4.689680    0.012221
  H      3.268974    3.196534    0.010725
  H      4.299688    1.078758    0.008610
  H      4.471372   -1.232781    0.006271
  C      0.880320    0.807714    0.008276
  C     -0.198323    1.701622    0.009181

----------------------------
CARTESIAN COORDINATES (A.U.)
----------------------------
  NO LB      ZA    FRAG     MASS         X           Y           Z
   0 C     6.0000    0    12.011    5.157486   -6.098481    0.007947
   1 C     6.0000    0    12.011    2.895264   -7.462520    0.006552
   2 C     6.0000    0    12.011    0.829567   -5.792877    0.008233
   3 C     6.0000    0    12.011   -1.727600   -6.564114    0.007414
   4 C     6.0000    0    12.011   -3.938526   -5.192827    0.008753
   5 C     6.0000    0    12.011   -4.187435   -2.529679    0.011467
   6 C     6.0000    0    12.011   -6.476492   -1.105299    0.012901
   7 C     6.0000    0    12.011   -6.864792    1.195378    0.015273
   8 C     6.0000    0    12.011   -5.007085    3.143323    0.017286
   9 C     6.0000    0    12.011   -4.930334    5.822506    0.020029
  10 C     6.0000    0    12.011   -2.640900    7.119631    0.021332
  11 C     6.0000    0    12.011   -0.267756    5.845154    0.020026
  12 C     6.0000    0    12.011    2.248513    6.835425    0.021040
  13 C     6.0000    0    12.011    4.294146    5.230007    0.019428
  14 C     6.0000    0    12.011    4.118193    2.504479    0.016663
  15 C     6.0000    0    12.011    6.354643    1.002182    0.015189
  16 C     6.0000    0    12.011    6.533689   -1.585615    0.012572
  17 C     6.0000    0    12.011    4.649296   -3.490467    0.010600
  18 C     6.0000    0    12.011    0.580010   -1.024364    0.013054
  19 C     6.0000    0    12.011   -2.661163    1.877025    0.015994
  20 C     6.0000    0    12.011   -2.173026   -0.745975    0.013313
  21 C     6.0000    0    12.011    1.902082   -3.239546    0.010838
  22 H     1.0000    0     1.008    7.034324   -6.909684    0.007130
  23 H     1.0000    0     1.008    2.734349   -9.500649    0.004473
  24 H     1.0000    0     1.008   -1.969219   -8.604903    0.005336
  25 H     1.0000    0     1.008   -5.691579   -6.251305    0.007644
  26 H     1.0000    0     1.008   -6.682595    6.881518    0.021132
  27 H     1.0000    0     1.008   -2.674197    9.169509    0.023427
  28 H     1.0000    0     1.008    2.558230    8.862210    0.023094
  29 H     1.0000    0     1.008    6.177466    6.040574    0.020268
  30 H     1.0000    0     1.008    8.125232    2.038557    0.016270
  31 H     1.0000    0     1.008    8.449669   -2.329618    0.011850
  32 C     6.0000    0    12.011    1.663564    1.526359    0.015640
  33 C     6.0000    0    12.011   -0.374777    3.215600    0.017349

--------------------------------
INTERNAL COORDINATES (ANGSTROEM)
--------------------------------
 C      0   0   0     0.000000000000     0.00000000     0.00000000
 C      1   0   0     1.397894752245     0.00000000     0.00000000
 C      2   1   0     1.405542007138   109.96389608     0.00000000
 C      3   2   1     1.413399627700   124.26914762   179.99939848
 C      4   3   2     1.376738060296   131.40823478   180.00100781
 C      5   4   3     1.415420052004   127.14813371     0.00000000
 C      6   5   4     1.426683986483   127.23180787   180.00111887
 C      7   6   5     1.234685055502   131.47209402   179.99906812
 C      8   7   6     1.424417901860   126.77843605     0.00000000
 C      9   8   7     1.418345041105   137.99921930   179.99935840
 C     10   9   8     1.392454397634   121.17549357   180.00126954
 C     11  10   9     1.425453119385   122.22774538     0.00000000
 C     12  11  10     1.430956981234   130.28033979   180.00064244
 C     13  12  11     1.376062799170   120.39307387   179.99917410
 C     14  13  12     1.445290629015   124.43118841     0.00000000
 C     15  14  13     1.425698545294   120.19684500   180.00078275
 C     16  15  14     1.372677584426   127.84848297   179.99998700
 C      1   2   3     1.406058669697   110.06216547     0.00000000
 C     18   1   2     2.517947075550   132.24339348     0.00000000
 C      9   8   7     1.410717283939   105.28206181     0.00000000
 C     20   9   8     1.411863754805   128.90169406     0.00000000
 C     19  18   1     1.365124582129    27.95320867     0.00000000
 H      1   2   3     1.081979182954   125.53664191   180.00018506
 H      2   1   3     1.081888132862   125.60274718   179.99957573
 H      4   3   2     1.087481863983   113.53534572     0.00000000
 H      5   4   3     1.083660566594   117.06824205   179.99950225
 H     10   9   8     1.083447394471   119.50658113     0.00000000
 H     11  10   9     1.084892287573   118.60401836   179.99986378
 H     13  12  11     1.084979147557   120.17026194     0.00000000
 H     14  13  12     1.084995585317   118.58838607   180.00036081
 H     16  15  14     1.085660170487   115.76776812     0.00000000
 H     17  16  15     1.087651896857   115.17982939   179.99971830
 C     15  14  13     1.398262350665   115.42002443     0.00000000
 C     12  11  10     1.392652650624   115.90705844     0.00000000

---------------------------
INTERNAL COORDINATES (A.U.)
---------------------------
 C      0   0   0     0.000000000000     0.00000000     0.00000000
 C      1   0   0     2.641638245789     0.00000000     0.00000000
 C      2   1   0     2.656089463213   109.96389608     0.00000000
 C      3   2   1     2.670938214139   124.26914762   179.99939848
 C      4   3   2     2.601657892106   131.40823478   180.00100781
 C      5   4   3     2.674756262749   127.14813371     0.00000000
 C      6   5   4     2.696042014105   127.23180787   180.00111887
 C      7   6   5     2.333216616544   131.47209402   179.99906812
 C      8   7   6     2.691759734770   126.77843605     0.00000000
 C      9   8   7     2.680283691094   137.99921930   179.99935840
 C     10   9   8     2.631357465502   121.17549357   180.00126954
 C     11  10   9     2.693716012382   122.22774538     0.00000000
 C     12  11  10     2.704116803954   130.28033979   180.00064244
 C     13  12  11     2.600381833509   120.39307387   179.99917410
 C     14  13  12     2.731203472760   124.43118841     0.00000000
 C     15  14  13     2.694179800136   120.19684500   180.00078275
 C     16  15  14     2.593984704738   127.84848297   179.99998700
 C      1   2   3     2.657065813954   110.06216547     0.00000000
 C     18   1   2     4.758230392497   132.24339348     0.00000000
 C      9   8   7     2.665869319033   105.28206181     0.00000000
 C     20   9   8     2.668035834991   128.90169406     0.00000000
 C     19  18   1     2.579711598907    27.95320867     0.00000000
 H      1   2   3     2.044644338388   125.53664191   180.00018506
 H      2   1   3     2.044472278649   125.60274718   179.99957573
 H      4   3   2     2.055042898535   113.53534572     0.00000000
 H      5   4   3     2.047821692992   117.06824205   179.99950225
 H     10   9   8     2.047418856060   119.50658113     0.00000000
 H     11  10   9     2.050149308316   118.60401836   179.99986378
 H     13  12  11     2.050313449897   120.17026194     0.00000000
 H     14  13  12     2.050344512763   118.58838607   180.00036081
 H     16  15  14     2.051600396726   115.76776812     0.00000000
 H     17  16  15     2.055364214099   115.17982939   179.99971830
 C     15  14  13     2.642332906130   115.42002443     0.00000000
 C     12  11  10     2.631732109358   115.90705844     0.00000000

---------------------
BASIS SET INFORMATION
---------------------
There are 2 groups of distinct atoms

 Group   1 Type C   : 12s6p1d contracted to 5s4p1d pattern {63111/3111/1}
 Group   2 Type H   : 5s1p contracted to 3s1p pattern {311/1}

Atom   0C    basis set group =>   1
Atom   1C    basis set group =>   1
Atom   2C    basis set group =>   1
Atom   3C    basis set group =>   1
Atom   4C    basis set group =>   1
Atom   5C    basis set group =>   1
Atom   6C    basis set group =>   1
Atom   7C    basis set group =>   1
Atom   8C    basis set group =>   1
Atom   9C    basis set group =>   1
Atom  10C    basis set group =>   1
Atom  11C    basis set group =>   1
Atom  12C    basis set group =>   1
Atom  13C    basis set group =>   1
Atom  14C    basis set group =>   1
Atom  15C    basis set group =>   1
Atom  16C    basis set group =>   1
Atom  17C    basis set group =>   1
Atom  18C    basis set group =>   1
Atom  19C    basis set group =>   1
Atom  20C    basis set group =>   1
Atom  21C    basis set group =>   1
Atom  22H    basis set group =>   2
Atom  23H    basis set group =>   2
Atom  24H    basis set group =>   2
Atom  25H    basis set group =>   2
Atom  26H    basis set group =>   2
Atom  27H    basis set group =>   2
Atom  28H    basis set group =>   2
Atom  29H    basis set group =>   2
Atom  30H    basis set group =>   2
Atom  31H    basis set group =>   2
Atom  32C    basis set group =>   1
Atom  33C    basis set group =>   1
---------------------------------
AUXILIARY/J BASIS SET INFORMATION
---------------------------------
There are 2 groups of distinct atoms

 Group   1 Type C   : 12s5p4d2f1g contracted to 6s4p3d1f1g pattern {711111/2111/211/2/1}
 Group   2 Type H   : 5s2p1d contracted to 3s1p1d pattern {311/2/1}

Atom   0C    basis set group =>   1
Atom   1C    basis set group =>   1
Atom   2C    basis set group =>   1
Atom   3C    basis set group =>   1
Atom   4C    basis set group =>   1
Atom   5C    basis set group =>   1
Atom   6C    basis set group =>   1
Atom   7C    basis set group =>   1
Atom   8C    basis set group =>   1
Atom   9C    basis set group =>   1
Atom  10C    basis set group =>   1
Atom  11C    basis set group =>   1
Atom  12C    basis set group =>   1
Atom  13C    basis set group =>   1
Atom  14C    basis set group =>   1
Atom  15C    basis set group =>   1
Atom  16C    basis set group =>   1
Atom  17C    basis set group =>   1
Atom  18C    basis set group =>   1
Atom  19C    basis set group =>   1
Atom  20C    basis set group =>   1
Atom  21C    basis set group =>   1
Atom  22H    basis set group =>   2
Atom  23H    basis set group =>   2
Atom  24H    basis set group =>   2
Atom  25H    basis set group =>   2
Atom  26H    basis set group =>   2
Atom  27H    basis set group =>   2
Atom  28H    basis set group =>   2
Atom  29H    basis set group =>   2
Atom  30H    basis set group =>   2
Atom  31H    basis set group =>   2
Atom  32C    basis set group =>   1
Atom  33C    basis set group =>   1


           ************************************************************
           *        Program running with 8 parallel MPI-processes     *
           *              working on a common directory               *
           ************************************************************
------------------------------------------------------------------------------
                           ORCA GTO INTEGRAL CALCULATION
                           -- RI-GTO INTEGRALS CHOSEN --
------------------------------------------------------------------------------
------------------------------------------------------------------------------
                   ___                                                        
                  /   \      - P O W E R E D   B Y -                         
                 /     \                                                     
                 |  |  |   _    _      __       _____    __    __             
                 |  |  |  | |  | |    /  \     |  _  \  |  |  /  |          
                  \  \/   | |  | |   /    \    | | | |  |  | /  /          
                 / \  \   | |__| |  /  /\  \   | |_| |  |  |/  /          
                |  |  |   |  __  | /  /__\  \  |    /   |      \           
                |  |  |   | |  | | |   __   |  |    \   |  |\   \          
                \     /   | |  | | |  |  |  |  | |\  \  |  | \   \       
                 \___/    |_|  |_| |__|  |__|  |_| \__\ |__|  \__/        
                                                                              
                      - O R C A' S   B I G   F R I E N D -                    
                                      &                                       
                       - I N T E G R A L  F E E D E R -                       
                                                                              
 v1 FN, 2020, v2 2021                                                         
------------------------------------------------------------------------------


Reading SHARK input file Stone-Wales_defect_loss_two.SHARKINP.tmp ... ok
----------------------
SHARK INTEGRAL PACKAGE
----------------------

Number of atoms                             ...     34
Number of basis functions                   ...    588
Number of shells                            ...    280
Maximum angular momentum                    ...      2
Integral batch strategy                     ... SHARK/LIBINT Hybrid
RI-J (if used) integral strategy            ... SPLIT-RIJ (Revised 2003 algorithm where possible)
Printlevel                                  ...      1
Contraction scheme used                     ... SEGMENTED contraction
Coulomb Range Separation                    ... NOT USED
Exchange Range Separation                   ... NOT USED
Finite Nucleus Model                        ... NOT USED
Auxiliary Coulomb fitting basis             ... AVAILABLE
   # of basis functions in Aux-J            ...   1286
   # of shells in Aux-J                     ...    410
   Maximum angular momentum in Aux-J        ...      4
Auxiliary J/K fitting basis                 ... NOT available
Auxiliary Correlation fitting basis         ... NOT available
Auxiliary 'external' fitting basis          ... NOT available
Integral threshold                          ...     1.000000e-10
Primitive cut-off                           ...     1.000000e-11
Primitive pair pre-selection threshold      ...     1.000000e-11

Calculating pre-screening integrals         ... done (  0.0 sec) Dimension = 280
Organizing shell pair data                  ... done (  0.2 sec)
Shell pair information
Total number of shell pairs                 ...     39340
Shell pairs after pre-screening             ...     31108
Total number of primitive shell pairs       ...    133920
Primitive shell pairs kept                  ...     69784
          la=0 lb=0:   8527 shell pairs
          la=1 lb=0:  12856 shell pairs
          la=1 lb=1:   4863 shell pairs
          la=2 lb=0:   2624 shell pairs
          la=2 lb=1:   2010 shell pairs
          la=2 lb=2:    228 shell pairs

Calculating one electron integrals          ... done (  0.0 sec)
Calculating RI/J V-Matrix + Cholesky decomp.... done (  0.1 sec)
Calculating Nuclear repulsion               ... done (  0.0 sec) ENN=   1784.068230879914 Eh

SHARK setup successfully completed in   0.7 seconds

Maximum memory used throughout the entire GTOINT-calculation: 41.9 MB


           ************************************************************
           *        Program running with 8 parallel MPI-processes     *
           *              working on a common directory               *
           ************************************************************
-------------------------------------------------------------------------------
                                 ORCA SCF
-------------------------------------------------------------------------------

------------
SCF SETTINGS
------------
Hamiltonian:
 Density Functional     Method          .... DFT(GTOs)
 Exchange Functional    Exchange        .... B88
   X-Alpha parameter    XAlpha          ....  0.666667
   Becke's b parameter  XBeta           ....  0.004200
 Correlation Functional Correlation     .... LYP
 LDA part of GGA corr.  LDAOpt          .... VWN-5
 Gradients option       PostSCFGGA      .... off
 Hybrid DFT is turned on
   Fraction HF Exchange ScalHFX         ....  0.200000
   Scaling of DF-GGA-X  ScalDFX         ....  0.720000
   Scaling of DF-GGA-C  ScalDFC         ....  0.810000
   Scaling of DF-LDA-C  ScalLDAC        ....  1.000000
   Perturbative correction              ....  0.000000
   Density functional embedding theory  .... OFF
   NL short-range parameter             ....  4.800000
 RI-approximation to the Coulomb term is turned on
   Number of AuxJ basis functions       .... 1286
   RIJ-COSX (HFX calculated with COS-X)).... on


General Settings:
 Integral files         IntName         .... Stone-Wales_defect_loss_two
 Hartree-Fock type      HFTyp           .... RHF
 Total Charge           Charge          ....    0
 Multiplicity           Mult            ....    1
 Number of Electrons    NEL             ....  154
 Basis Dimension        Dim             ....  588
 Nuclear Repulsion      ENuc            ....   1784.0682308799 Eh

Convergence Acceleration:
 DIIS                   CNVDIIS         .... on
   Start iteration      DIISMaxIt       ....    12
   Startup error        DIISStart       ....  0.200000
   # of expansion vecs  DIISMaxEq       ....     5
   Bias factor          DIISBfac        ....   1.050
   Max. coefficient     DIISMaxC        ....  10.000
 Trust-Rad. Augm. Hess. CNVTRAH         .... auto
   Auto Start mean grad. ratio tolernc. ....  1.125000
   Auto Start start iteration           ....    20
   Auto Start num. interpolation iter.  ....    10
   Max. Number of Micro iterations      ....    16
   Max. Number of Macro iterations      .... Maxiter - #DIIS iter
   Number of Davidson start vectors     ....     2
   Converg. threshold I  (grad. norm)   ....   5.000e-05
   Converg. threshold II (energy diff.) ....   1.000e-06
   Grad. Scal. Fac. for Micro threshold ....   0.100
   Minimum threshold for Micro iter.    ....   0.010
   NR start threshold (gradient norm)   ....   0.001
   Initial trust radius                 ....   0.400
   Minimum AH scaling param. (alpha)    ....   1.000
   Maximum AH scaling param. (alpha)    .... 1000.000
   Orbital update algorithm             .... Taylor
   White noise on init. David. guess    .... on
   Maximum white noise                  ....   0.010
   Quad. conv. algorithm                .... NR
 SOSCF                  CNVSOSCF        .... on
   Start iteration      SOSCFMaxIt      ....   150
   Startup grad/error   SOSCFStart      ....  0.003300
 Level Shifting         CNVShift        .... on
   Level shift para.    LevelShift      ....    0.2500
   Turn off err/grad.   ShiftErr        ....    0.0010
 Zerner damping         CNVZerner       .... off
 Static damping         CNVDamp         .... on
   Fraction old density DampFac         ....    0.7000
   Max. Damping (<1)    DampMax         ....    0.9800
   Min. Damping (>=0)   DampMin         ....    0.0000
   Turn off err/grad.   DampErr         ....    0.1000
 Fernandez-Rico         CNVRico         .... off

SCF Procedure:
 Maximum # iterations   MaxIter         ....   125
 SCF integral mode      SCFMode         .... Direct
   Integral package                     .... SHARK and LIBINT hybrid scheme
 Reset frequency        DirectResetFreq ....    20
 Integral Threshold     Thresh          ....  1.000e-10 Eh
 Primitive CutOff       TCut            ....  1.000e-11 Eh

Convergence Tolerance:
 Convergence Check Mode ConvCheckMode   .... Total+1el-Energy
 Convergence forced     ConvForced      .... 1
 Energy Change          TolE            ....  1.000e-06 Eh
 1-El. energy change                    ....  1.000e-03 Eh
 Orbital Gradient       TolG            ....  5.000e-05
 Orbital Rotation angle TolX            ....  5.000e-05
 DIIS Error             TolErr          ....  1.000e-06


Diagonalization of the overlap matrix:
Smallest eigenvalue                        ... 6.222e-10
Time for diagonalization                   ...    0.040 sec
Threshold for overlap eigenvalues          ... 1.000e-08
Number of eigenvalues below threshold      ... 6
Smallest eigenvalue above threshold        ... 3.062e-08
Time for construction of square roots      ...    0.059 sec
Total time needed                          ...    0.101 sec

Time for model grid setup =    0.364 sec

------------------------------
INITIAL GUESS: MODEL POTENTIAL
------------------------------
Loading Hartree-Fock densities                     ... done
Calculating cut-offs                               ... done
Initializing the effective Hamiltonian             ... done
Setting up the integral package (SHARK)            ... done
Starting the Coulomb interaction                   ... done (   0.5 sec)
Reading the grid                                   ... done
Mapping shells                                     ... done
Starting the XC term evaluation                    ... done (   0.4 sec)
  promolecular density results
     # of electrons  =    153.994234181
     EX              =   -126.453995832
     EC              =     -5.258320519
     EX+EC           =   -131.712316351
Transforming the Hamiltonian                       ... done (   0.0 sec)
Diagonalizing the Hamiltonian                      ... done (   0.0 sec)
Back transforming the eigenvectors                 ... done (   0.0 sec)
Now organizing SCF variables                       ... done
                      ------------------
                      INITIAL GUESS DONE (   1.4 sec)
                      ------------------
-------------------
DFT GRID GENERATION
-------------------

General Integration Accuracy     IntAcc      ... 4.388
Radial Grid Type                 RadialGrid  ... OptM3 with GC (2021)
Angular Grid (max. ang.)         AngularGrid ... 4 (Lebedev-302)
Angular grid pruning method      GridPruning ... 4 (adaptive)
Weight generation scheme         WeightScheme... Becke
Basis function cutoff            BFCut       ... 1.0000e-10
Integration weight cutoff        WCut        ... 1.0000e-14
Angular grids for H and He will be reduced by one unit
Partially contracted basis set               ... off
Rotationally invariant grid construction     ... off

Total number of grid points                  ...   179751
Total number of batches                      ...     2825
Average number of points per batch           ...       63
Average number of grid points per atom       ...     5287
Time for grid setup =    1.436 sec

--------------------
COSX GRID GENERATION
--------------------

GRIDX 1
-------
General Integration Accuracy     IntAcc      ... 3.816
Radial Grid Type                 RadialGrid  ... OptM3 with GC (2021)
Angular Grid (max. ang.)         AngularGrid ... 1 (Lebedev-50)
Angular grid pruning method      GridPruning ... 4 (adaptive)
Weight generation scheme         WeightScheme... Becke
Basis function cutoff            BFCut       ... 1.0000e-10
Integration weight cutoff        WCut        ... 1.0000e-14
Angular grids for H and He will be reduced by one unit
Partially contracted basis set               ... on
Rotationally invariant grid construction     ... off

Total number of grid points                  ...    22809
Total number of batches                      ...      378
Average number of points per batch           ...       60
Average number of grid points per atom       ...      671
UseSFitting                                  ... on

GRIDX 2
-------
General Integration Accuracy     IntAcc      ... 4.020
Radial Grid Type                 RadialGrid  ... OptM3 with GC (2021)
Angular Grid (max. ang.)         AngularGrid ... 2 (Lebedev-110)
Angular grid pruning method      GridPruning ... 4 (adaptive)
Weight generation scheme         WeightScheme... Becke
Basis function cutoff            BFCut       ... 1.0000e-10
Integration weight cutoff        WCut        ... 1.0000e-14
Angular grids for H and He will be reduced by one unit
Partially contracted basis set               ... on
Rotationally invariant grid construction     ... off

Total number of grid points                  ...    55112
Total number of batches                      ...      881
Average number of points per batch           ...       62
Average number of grid points per atom       ...     1621
UseSFitting                                  ... on

GRIDX 3
-------
General Integration Accuracy     IntAcc      ... 4.338
Radial Grid Type                 RadialGrid  ... OptM3 with GC (2021)
Angular Grid (max. ang.)         AngularGrid ... 3 (Lebedev-194)
Angular grid pruning method      GridPruning ... 4 (adaptive)
Weight generation scheme         WeightScheme... Becke
Basis function cutoff            BFCut       ... 1.0000e-10
Integration weight cutoff        WCut        ... 1.0000e-14
Angular grids for H and He will be reduced by one unit
Partially contracted basis set               ... on
Rotationally invariant grid construction     ... off

Total number of grid points                  ...   119156
Total number of batches                      ...     1881
Average number of points per batch           ...       63
Average number of grid points per atom       ...     3505
UseSFitting                                  ... on

Time for X-Grid setup             =    2.288 sec

--------------
SCF ITERATIONS
--------------
ITER       Energy         Delta-E        Max-DP      RMS-DP      [F,P]     Damp
               ***  Starting incremental Fock matrix formation  ***
  0   -919.7085663172   0.00000000000046.13004222  0.38434031  0.1548608 0.7000
  1   -919.8757522585  -0.16718594128891.66640417  0.52358368  0.0804347 0.7000
                               ***Turning on DIIS***
  2   -919.9565415530  -0.0807892945186133280.78709387 36975.74559331  0.0391404 0.0000
  3   -918.6535359105   1.303005642548186047.25231713 2116.65737937  0.0994812 0.0000
  4   -918.7316861461  -0.078150235619236682.18255162 2635.32947190  0.0526735 0.0000
  5   -918.7566175543  -0.0249314081981223108.27978438 11848.11536198  0.0287326 0.0000
  6   -918.8070254717  -0.0504079174442216596.99647313 20956.96031497  0.0168644 0.0000
  7   -918.8606392970  -0.0536138252942491479.54662358 18372.50669096  0.0103126 0.0000
  8   -918.8552364434   0.005402853608897240.42787695 11988.95960754  0.0087606 0.0000
  9   -918.8368035184   0.018432925001685399.97161127 11019.89395484  0.0052598 0.0000
 10   -918.8357427886   0.001060729845523523.02472507 5881.74890549  0.0054815 0.0000
 11   -918.8296422977   0.006100490907603143.04042743 6691.48806353  0.0018694 0.0000
 12   -918.7660886020   0.063553695704437626.08875753 6052.21473201  0.0054553 0.0000
 13   -918.4621287167   0.303959885247509209.00888776 9083.20666939  0.0392149 0.0000
 14   -917.8691955579   0.592933158845309165.13015190 6397.43347126  0.0981451 0.0000
 15   -917.3848057418   0.484389816115105700.41614171 1195.35189472  0.1393272 0.7000
 16   -917.3092305114   0.075575230369224881.93961635 2210.44496157  0.1450874 0.7000
 17   -917.2300445835   0.079185927893278845.22432208 2611.07003523  0.1505616 0.7000
 18   -917.1876670644   0.042377519065329375.82247631 2467.30737382  0.1498070 0.7000
 19   -917.2183581498  -0.0306910854241354401.74619666 14822.67073813  0.1280785 0.7000
               *** Restarting incremental Fock matrix formation ***
                                   *** Resetting DIIS ***

 WARNING: the maximum gradient error descreased on average only by a factor   0.7
          during the last 20 iterations

                      *** Initiating the TRAH-SCF procedure ***


TRAH GRIDX
----------

General Integration Accuracy     IntAcc      ... 3.067
Radial Grid Type                 RadialGrid  ... OptM3 with GC (2021)
Angular Grid (max. ang.)         AngularGrid ... 1 (Lebedev-50)
Angular grid pruning method      GridPruning ... 4 (adaptive)
Weight generation scheme         WeightScheme... Becke
Basis function cutoff            BFCut       ... 1.0000e-10
Integration weight cutoff        WCut        ... 1.0000e-14
Angular grids for H and He will be reduced by one unit
Partially contracted basis set               ... on
Rotationally invariant grid construction     ... off

Total number of grid points                  ...    12268
Total number of batches                      ...      208
Average number of points per batch           ...       58
Average number of grid points per atom       ...      361


TRAH GRID
---------

General Integration Accuracy     IntAcc      ... 3.467
Radial Grid Type                 RadialGrid  ... OptM3 with GC (2021)
Angular Grid (max. ang.)         AngularGrid ... 1 (Lebedev-50)
Angular grid pruning method      GridPruning ... 4 (adaptive)
Weight generation scheme         WeightScheme... Becke
Basis function cutoff            BFCut       ... 1.0000e-10
Integration weight cutoff        WCut        ... 1.0000e-14
Angular grids for H and He will be reduced by one unit
Partially contracted basis set               ... off
Rotationally invariant grid construction     ... off

Total number of grid points                  ...    27382
Total number of batches                      ...      444
Average number of points per batch           ...       61
Average number of grid points per atom       ...      805

 --------------------------------------------------------------------------------------------
   Iter.        energy            ||Error||_2        Shift      TRadius  Mac/Mic        Rej.
 --------------------------------------------------------------------------------------------
WARNING: 217 diagonal Hessian elements are negative!
    0       -918.520615102781     2.550176e+00                     0.400 (TRAH MAcro)   No
WARNING : negative HOMO - LUMO gap : -0.630254
    0     dE    -3.942708e-01     3.040940e+00    -7.2898e-01      0.286 (TRAH MIcro)
    0     dE    -6.133957e-01     8.722081e-01    -3.0649e+00      0.380 (TRAH MIcro)
    0     dE    -6.309038e-01     2.238159e-01    -3.1251e+00      0.384 (TRAH MIcro)
    0     dE    -6.266651e-01     3.835570e-02    -3.1339e+00      0.379 (TRAH MIcro)
    0     dE    -6.252728e-01     1.077872e-02    -3.1345e+00      0.378 (TRAH MIcro)
    0     dE    -6.252207e-01     6.692573e-03    -3.1345e+00      0.378 (TRAH MIcro)
WARNING: 84 diagonal Hessian elements are negative!
    1       -919.075664400458     1.049768e+00                     0.480 (TRAH MAcro)   No
WARNING : negative HOMO - LUMO gap : -0.464825
    1     dE    -1.557079e-01     1.041569e+00    -2.8942e-01      0.276 (TRAH MIcro)
    1     dE    -3.479782e-01     3.442979e-01    -1.3104e+00      0.480 (TRAH MIcro)
    1     dE    -3.770977e-01     1.426534e-01    -1.6283e+00      0.480 (TRAH MIcro)
    1     dE    -3.820059e-01     1.643051e-01    -1.7175e+00      0.480 (TRAH MIcro)
    1     dE    -2.555734e-01     1.310642e-01    -2.3653e+00      0.318 (TRAH MIcro)
    1     dE    -2.523162e-01     2.028495e-02    -2.3740e+00      0.313 (TRAH MIcro)
    1     dE    -2.520077e-01     8.548115e-03    -2.3744e+00      0.312 (TRAH MIcro)
WARNING: 49 diagonal Hessian elements are negative!
    2       -919.288646755787     6.564759e-01                     0.576 (TRAH MAcro)   No
WARNING : negative HOMO - LUMO gap : -0.361659
    2     dE    -1.701917e-01     8.817855e-01    -2.8605e-01      0.436 (TRAH MIcro)
    2     dE    -3.135120e-01     4.570533e-01    -9.0534e-01      0.576 (TRAH MIcro)
    2     dE    -3.755742e-01     3.593847e-01    -1.4361e+00      0.576 (TRAH MIcro)
    2     dE    -2.688202e-01     9.816142e-02    -1.8060e+00      0.428 (TRAH MIcro)
    2     dE    -2.788636e-01     3.412030e-02    -1.8128e+00      0.439 (TRAH MIcro)
    2     dE    -2.820895e-01     1.480057e-02    -1.8141e+00      0.443 (TRAH MIcro)
    2     dE    -2.837141e-01     1.289064e-02    -1.8145e+00      0.445 (TRAH MIcro)
    2     dE    -2.841241e-01     8.612844e-03    -1.8145e+00      0.445 (TRAH MIcro)
WARNING: 9 diagonal Hessian elements are negative!
    3       -919.544401256285     5.852150e-01                     0.691 (TRAH MAcro)   No
WARNING : negative HOMO - LUMO gap : -0.183198
    3     dE    -3.147577e-01     1.372217e+00    -4.7129e-01      0.691 (TRAH MIcro)
    3     dE    -4.433370e-01     4.687102e-01    -1.0846e+00      0.691 (TRAH MIcro)
    3     dE    -4.269018e-01     1.302630e-01    -1.2728e+00      0.644 (TRAH MIcro)
    3     dE    -4.379443e-01     5.562056e-02    -1.2780e+00      0.655 (TRAH MIcro)
    3     dE    -4.414054e-01     2.690406e-02    -1.2789e+00      0.659 (TRAH MIcro)
    3     dE    -4.420064e-01     1.428199e-02    -1.2790e+00      0.660 (TRAH MIcro)
    3     dE    -4.420256e-01     1.365306e-02    -1.2790e+00      0.660 (TRAH MIcro)
    3     dE    -4.420383e-01     1.384870e-02    -1.2790e+00      0.660 (TRAH MIcro)
    3     dE    -4.420375e-01     1.388450e-02    -1.2790e+00      0.660 (TRAH MIcro)
    3     dE    -4.420360e-01     1.397118e-02    -1.2790e+00      0.660 (TRAH MIcro)
    3     dE    -4.420228e-01     1.480393e-02    -1.2790e+00      0.660 (TRAH MIcro)
    3     dE    -4.420396e-01     1.537437e-02    -1.2790e+00      0.660 (TRAH MIcro)
    3     dE    -4.420833e-01     1.502137e-02    -1.2790e+00      0.660 (TRAH MIcro)
    3     dE    -4.421290e-01     1.533928e-02    -1.2791e+00      0.660 (TRAH MIcro)
    4       -919.954869154034     4.136055e-01                     0.829 (TRAH MAcro)   No
    4     dE    -5.699220e-02     9.634277e-01    -1.0685e-01      0.258 (TRAH MIcro)
    4     dE    -1.349553e-01     5.555537e-01    -2.0559e-01      0.559 (TRAH MIcro)
    4     dE    -1.498640e-01     1.872249e-01    -2.1915e-01      0.606 (TRAH MIcro)
    4     dE    -1.531432e-01     4.026225e-02    -2.2159e-01      0.618 (TRAH MIcro)
    4     dE    -1.534953e-01     2.512442e-02    -2.2181e-01      0.620 (TRAH MIcro)
    4     dE    -1.535487e-01     1.523847e-02    -2.2185e-01      0.620 (TRAH MIcro)
    4     dE    -1.535641e-01     1.261796e-02    -2.2187e-01      0.620 (TRAH MIcro)
    4     dE    -1.535640e-01     1.468021e-02    -2.2187e-01      0.620 (TRAH MIcro)
    4     dE    -1.535466e-01     1.528831e-02    -2.2188e-01      0.620 (TRAH MIcro)
    4     dE    -1.535244e-01     1.458662e-02    -2.2189e-01      0.619 (TRAH MIcro)
    4     dE    -1.535046e-01     1.557635e-02    -2.2190e-01      0.619 (TRAH MIcro)
    4     dE    -1.535036e-01     1.639359e-02    -2.2191e-01      0.619 (TRAH MIcro)
    4     dE    -1.534964e-01     1.606520e-02    -2.2191e-01      0.619 (TRAH MIcro)
    4     dE    -1.534980e-01     1.661408e-02    -2.2191e-01      0.619 (TRAH MIcro)
    5       -920.093452399222     2.503008e-01                     0.995 (TRAH MAcro)   No
    5     dE    -4.331816e-03     2.489239e-01    -8.6533e-03      0.035 (TRAH MIcro)
    5     dE    -6.767897e-03     7.566920e-02    -1.3465e-02      0.073 (TRAH MIcro)
    5     dE    -7.341320e-03     2.619288e-02    -1.4585e-02      0.082 (TRAH MIcro)
    5     dE    -7.402331e-03     1.413751e-02    -1.4701e-02      0.084 (TRAH MIcro)
    5     dE    -7.415231e-03     4.728997e-03    -1.4724e-02      0.085 (TRAH MIcro)
    6       -920.101447762899     8.669015e-03                     1.194 (TRAH MAcro)   No
    6     dE    -2.710965e-06     1.876470e-02    -5.4219e-06      0.001 (TRAH MIcro)
    6     dE    -2.206545e-05     6.385863e-03    -4.4129e-05      0.007 (TRAH MIcro)
    6     dE    -2.607841e-05     2.875649e-03    -5.2153e-05      0.008 (TRAH MIcro)
    6     dE    -2.648687e-05     8.011539e-04    -5.2970e-05      0.009 (TRAH MIcro)
    7       -920.101475274020     8.293960e-04                           (NR   MAcro)
    7     dE    -5.580161e-08     4.112630e-04                           (NR   MIcro)
    7     dE    -8.047137e-08     2.290677e-04                           (NR   MIcro)
    7     dE    -8.517433e-08     9.130579e-05                           (NR   MIcro)
    7     dE    -8.596331e-08     4.597930e-05                           (NR   MIcro)
    7     dE    -8.609623e-08     1.837596e-05                           (NR   MIcro)
    7     dE    -8.612060e-08     7.335288e-06                           (NR   MIcro)
    7     dE    -8.612638e-08     2.825623e-06                           (NR   MIcro)
    8       -920.101475377215     8.351028e-06                           (NR   MAcro)

               *****************************************************
               *                     SUCCESS                       *
               *           SCF CONVERGED AFTER  94 CYCLES          *
               *****************************************************

Old exchange energy                            =    -25.616457586 Eh
New exchange energy                            =    -25.616504340 Eh
Exchange energy change after final integration =     -0.000046754 Eh
Total energy after final integration           =   -920.101522131 Eh
Final COS-X integration done in                =    29.130 sec

----------------
TOTAL SCF ENERGY
----------------

Total Energy       :         -920.10152213 Eh          -25037.23529 eV

Components:
Nuclear Repulsion  :         1784.06823088 Eh           48546.96464 eV
Electronic Energy  :        -2704.16975301 Eh          -73584.19993 eV
One Electron Energy:        -4786.74567990 Eh         -130253.97193 eV
Two Electron Energy:         2082.57592689 Eh           56669.77201 eV
Max COSX asymmetry :            0.00024948 Eh               0.00679 eV

Virial components:
Potential Energy   :        -1836.85336309 Eh          -49983.32111 eV
Kinetic Energy     :          916.75184096 Eh           24946.08583 eV
Virial Ratio       :            2.00365386


DFT components:
N(Alpha)           :       77.000113835862 electrons
N(Beta)            :       77.000113835862 electrons
N(Total)           :      154.000227671724 electrons
E(X)               :     -101.829390489881 Eh       
E(C)               :       -6.190256002472 Eh       
E(XC)              :     -108.019646492353 Eh       
DFET-embed. en.    :        0.000000000000 Eh       

---------------
SCF CONVERGENCE
---------------

  Last Energy change         ...   -1.0320e-07  Tolerance :   1.0000e-06
  Last Orbital Gradient      ...    8.3510e-06  Tolerance :   5.0000e-05
  Last Orbital Rotation      ...    4.7898e-04

             **** THE GBW FILE WAS UPDATED (Stone-Wales_defect_loss_two.gbw) ****
             **** DENSITY Stone-Wales_defect_loss_two.scfp WAS UPDATED ****
             **** ENERGY FILE WAS UPDATED (Stone-Wales_defect_loss_two.en.tmp) ****
             **** THE GBW FILE WAS UPDATED (Stone-Wales_defect_loss_two.gbw) ****
             **** DENSITY Stone-Wales_defect_loss_two.scfp WAS UPDATED ****
----------------
ORBITAL ENERGIES
----------------

  NO   OCC          E(Eh)            E(eV) 
   0   2.0000     -10.228517      -278.3321 
   1   2.0000     -10.219696      -278.0921 
   2   2.0000     -10.218733      -278.0659 
   3   2.0000     -10.207349      -277.7561 
   4   2.0000     -10.206842      -277.7423 
   5   2.0000     -10.197187      -277.4796 
   6   2.0000     -10.196833      -277.4699 
   7   2.0000     -10.196753      -277.4678 
   8   2.0000     -10.195144      -277.4240 
   9   2.0000     -10.194400      -277.4037 
  10   2.0000     -10.193960      -277.3918 
  11   2.0000     -10.193346      -277.3751 
  12   2.0000     -10.191322      -277.3200 
  13   2.0000     -10.190752      -277.3045 
  14   2.0000     -10.190658      -277.3019 
  15   2.0000     -10.189487      -277.2700 
  16   2.0000     -10.188725      -277.2493 
  17   2.0000     -10.186287      -277.1830 
  18   2.0000     -10.185947      -277.1737 
  19   2.0000     -10.184856      -277.1440 
  20   2.0000     -10.184298      -277.1288 
  21   2.0000     -10.179398      -276.9955 
  22   2.0000     -10.176891      -276.9273 
  23   2.0000     -10.176264      -276.9102 
  24   2.0000      -0.928933       -25.2775 
  25   2.0000      -0.891993       -24.2724 
  26   2.0000      -0.875852       -23.8331 
  27   2.0000      -0.848172       -23.0799 
  28   2.0000      -0.829394       -22.5690 
  29   2.0000      -0.822901       -22.3923 
  30   2.0000      -0.789078       -21.4719 
  31   2.0000      -0.774498       -21.0752 
  32   2.0000      -0.762655       -20.7529 
  33   2.0000      -0.732386       -19.9292 
  34   2.0000      -0.729042       -19.8383 
  35   2.0000      -0.714927       -19.4541 
  36   2.0000      -0.676245       -18.4016 
  37   2.0000      -0.650063       -17.6891 
  38   2.0000      -0.645676       -17.5697 
  39   2.0000      -0.626085       -17.0366 
  40   2.0000      -0.600543       -16.3416 
  41   2.0000      -0.588136       -16.0040 
  42   2.0000      -0.573375       -15.6023 
  43   2.0000      -0.553270       -15.0552 
  44   2.0000      -0.544518       -14.8171 
  45   2.0000      -0.528007       -14.3678 
  46   2.0000      -0.515319       -14.0225 
  47   2.0000      -0.510598       -13.8941 
  48   2.0000      -0.479195       -13.0395 
  49   2.0000      -0.475611       -12.9420 
  50   2.0000      -0.462859       -12.5950 
  51   2.0000      -0.456822       -12.4307 
  52   2.0000      -0.443878       -12.0785 
  53   2.0000      -0.443193       -12.0599 
  54   2.0000      -0.442331       -12.0364 
  55   2.0000      -0.427667       -11.6374 
  56   2.0000      -0.418132       -11.3780 
  57   2.0000      -0.410908       -11.1814 
  58   2.0000      -0.401944       -10.9375 
  59   2.0000      -0.393875       -10.7179 
  60   2.0000      -0.391123       -10.6430 
  61   2.0000      -0.387098       -10.5335 
  62   2.0000      -0.378667       -10.3041 
  63   2.0000      -0.374114       -10.1802 
  64   2.0000      -0.372918       -10.1476 
  65   2.0000      -0.354663        -9.6509 
  66   2.0000      -0.352573        -9.5940 
  67   2.0000      -0.337164        -9.1747 
  68   2.0000      -0.335600        -9.1321 
  69   2.0000      -0.334231        -9.0949 
  70   2.0000      -0.284327        -7.7369 
  71   2.0000      -0.282062        -7.6753 
  72   2.0000      -0.275339        -7.4923 
  73   2.0000      -0.266931        -7.2636 
  74   2.0000      -0.240241        -6.5373 
  75   2.0000      -0.224731        -6.1152 
  76   2.0000      -0.195823        -5.3286 
  77   0.0000      -0.100085        -2.7235 
  78   0.0000      -0.084110        -2.2887 
  79   0.0000      -0.074142        -2.0175 
  80   0.0000      -0.067791        -1.8447 
  81   0.0000      -0.021213        -0.5772 
  82   0.0000      -0.000000        -0.0000 
  83   0.0000      -0.000000        -0.0000 
  84   0.0000      -0.000000        -0.0000 
  85   0.0000       0.000000         0.0000 
  86   0.0000       0.000000         0.0000 
  87   0.0000       0.000000         0.0000 
  88   0.0000       0.000607         0.0165 
  89   0.0000       0.003207         0.0873 
  90   0.0000       0.007695         0.2094 
  91   0.0000       0.010730         0.2920 
  92   0.0000       0.020038         0.5453 
  93   0.0000       0.020457         0.5567 
  94   0.0000       0.024236         0.6595 
  95   0.0000       0.030082         0.8186 
  96   0.0000       0.038872         1.0578 
  97   0.0000       0.040034         1.0894 
  98   0.0000       0.044072         1.1993 
  99   0.0000       0.046458         1.2642 
 100   0.0000       0.049299         1.3415 
 101   0.0000       0.056196         1.5292 
 102   0.0000       0.058412         1.5895 
 103   0.0000       0.061128         1.6634 
 104   0.0000       0.064563         1.7569 
 105   0.0000       0.067950         1.8490 
 106   0.0000       0.072878         1.9831 
 107   0.0000       0.076508         2.0819 
 108   0.0000       0.078150         2.1266 
 109   0.0000       0.085479         2.3260 
 110   0.0000       0.086718         2.3597 
 111   0.0000       0.090291         2.4569 
 112   0.0000       0.095457         2.5975 
 113   0.0000       0.095831         2.6077 
 114   0.0000       0.098768         2.6876 
 115   0.0000       0.103336         2.8119 
 116   0.0000       0.111903         3.0450 
 117   0.0000       0.113753         3.0954 
 118   0.0000       0.116448         3.1687 
 119   0.0000       0.127300         3.4640 
 120   0.0000       0.129653         3.5280 
 121   0.0000       0.133173         3.6238 
 122   0.0000       0.136451         3.7130 
 123   0.0000       0.137550         3.7429 
 124   0.0000       0.140531         3.8240 
 125   0.0000       0.140666         3.8277 
 126   0.0000       0.142377         3.8743 
 127   0.0000       0.143335         3.9003 
 128   0.0000       0.148540         4.0420 
 129   0.0000       0.152608         4.1527 
 130   0.0000       0.159965         4.3529 
 131   0.0000       0.161041         4.3822 
 132   0.0000       0.164093         4.4652 
 133   0.0000       0.166378         4.5274 
 134   0.0000       0.168923         4.5966 
 135   0.0000       0.172979         4.7070 
 136   0.0000       0.176748         4.8096 
 137   0.0000       0.176890         4.8134 
 138   0.0000       0.178482         4.8567 
 139   0.0000       0.181329         4.9342 
 140   0.0000       0.185675         5.0525 
 141   0.0000       0.188334         5.1248 
 142   0.0000       0.190424         5.1817 
 143   0.0000       0.193265         5.2590 
 144   0.0000       0.194852         5.3022 
 145   0.0000       0.196258         5.3405 
 146   0.0000       0.198051         5.3892 
 147   0.0000       0.201619         5.4863 
 148   0.0000       0.202687         5.5154 
 149   0.0000       0.205379         5.5887 
 150   0.0000       0.209791         5.7087 
 151   0.0000       0.210085         5.7167 
 152   0.0000       0.215903         5.8750 
 153   0.0000       0.219658         5.9772 
 154   0.0000       0.223808         6.0901 
 155   0.0000       0.225893         6.1469 
 156   0.0000       0.226902         6.1743 
 157   0.0000       0.231953         6.3118 
 158   0.0000       0.233112         6.3433 
 159   0.0000       0.235206         6.4003 
 160   0.0000       0.238427         6.4879 
 161   0.0000       0.238675         6.4947 
 162   0.0000       0.243271         6.6197 
 163   0.0000       0.250760         6.8235 
 164   0.0000       0.250928         6.8281 
 165   0.0000       0.252829         6.8798 
 166   0.0000       0.258769         7.0415 
 167   0.0000       0.261968         7.1285 
 168   0.0000       0.265519         7.2251 
 169   0.0000       0.265769         7.2320 
 170   0.0000       0.269256         7.3268 
 171   0.0000       0.271600         7.3906 
 172   0.0000       0.274421         7.4674 
 173   0.0000       0.278494         7.5782 
 174   0.0000       0.280975         7.6457 
 175   0.0000       0.282243         7.6802 
 176   0.0000       0.285052         7.7567 
 177   0.0000       0.293172         7.9776 
 178   0.0000       0.293570         7.9884 
 179   0.0000       0.294378         8.0104 
 180   0.0000       0.298838         8.1318 
 181   0.0000       0.299233         8.1425 
 182   0.0000       0.305860         8.3229 
 183   0.0000       0.308779         8.4023 
 184   0.0000       0.316319         8.6075 
 185   0.0000       0.320830         8.7302 
 186   0.0000       0.326152         8.8751 
 187   0.0000       0.334140         9.0924 
 188   0.0000       0.334835         9.1113 
 189   0.0000       0.343054         9.3350 
 190   0.0000       0.343662         9.3515 
 191   0.0000       0.351707         9.5704 
 192   0.0000       0.359064         9.7706 
 193   0.0000       0.365988         9.9590 
 194   0.0000       0.371517        10.1095 
 195   0.0000       0.379618        10.3299 
 196   0.0000       0.381685        10.3862 
 197   0.0000       0.389830        10.6078 
 198   0.0000       0.394335        10.7304 
 199   0.0000       0.399396        10.8681 
 200   0.0000       0.403533        10.9807 
 201   0.0000       0.408425        11.1138 
 202   0.0000       0.415335        11.3018 
 203   0.0000       0.421919        11.4810 
 204   0.0000       0.432001        11.7553 
 205   0.0000       0.439354        11.9554 
 206   0.0000       0.442173        12.0321 
 207   0.0000       0.448755        12.2113 
 208   0.0000       0.460693        12.5361 
 209   0.0000       0.465733        12.6732 
 210   0.0000       0.479213        13.0400 
 211   0.0000       0.484029        13.1711 
 212   0.0000       0.487513        13.2659 
 213   0.0000       0.493199        13.4206 
 214   0.0000       0.495522        13.4838 
 215   0.0000       0.501474        13.6458 
 216   0.0000       0.508450        13.8356 
 217   0.0000       0.512502        13.9459 
 218   0.0000       0.516140        14.0449 
 219   0.0000       0.521935        14.2026 
 220   0.0000       0.531857        14.4726 
 221   0.0000       0.532876        14.5003 
 222   0.0000       0.534342        14.5402 
 223   0.0000       0.535957        14.5841 
 224   0.0000       0.547205        14.8902 
 225   0.0000       0.550183        14.9713 
 226   0.0000       0.558248        15.1907 
 227   0.0000       0.558380        15.1943 
 228   0.0000       0.560125        15.2418 
 229   0.0000       0.566623        15.4186 
 230   0.0000       0.567545        15.4437 
 231   0.0000       0.574377        15.6296 
 232   0.0000       0.580784        15.8039 
 233   0.0000       0.584486        15.9047 
 234   0.0000       0.584952        15.9174 
 235   0.0000       0.589082        16.0297 
 236   0.0000       0.593321        16.1451 
 237   0.0000       0.593590        16.1524 
 238   0.0000       0.600780        16.3480 
 239   0.0000       0.603929        16.4337 
 240   0.0000       0.608530        16.5589 
 241   0.0000       0.613836        16.7033 
 242   0.0000       0.614406        16.7188 
 243   0.0000       0.621214        16.9041 
 244   0.0000       0.627030        17.0624 
 245   0.0000       0.631883        17.1944 
 246   0.0000       0.633822        17.2472 
 247   0.0000       0.637435        17.3455 
 248   0.0000       0.644945        17.5498 
 249   0.0000       0.652329        17.7508 
 250   0.0000       0.659555        17.9474 
 251   0.0000       0.661867        18.0103 
 252   0.0000       0.662787        18.0354 
 253   0.0000       0.668709        18.1965 
 254   0.0000       0.674884        18.3645 
 255   0.0000       0.677190        18.4273 
 256   0.0000       0.683441        18.5974 
 257   0.0000       0.689954        18.7746 
 258   0.0000       0.700390        19.0586 
 259   0.0000       0.701696        19.0941 
 260   0.0000       0.707105        19.2413 
 261   0.0000       0.712907        19.3992 
 262   0.0000       0.713656        19.4196 
 263   0.0000       0.716533        19.4979 
 264   0.0000       0.719400        19.5759 
 265   0.0000       0.726947        19.7812 
 266   0.0000       0.730919        19.8893 
 267   0.0000       0.732152        19.9229 
 268   0.0000       0.733464        19.9586 
 269   0.0000       0.743972        20.2445 
 270   0.0000       0.744396        20.2561 
 271   0.0000       0.751544        20.4506 
 272   0.0000       0.754348        20.5269 
 273   0.0000       0.768557        20.9135 
 274   0.0000       0.772544        21.0220 
 275   0.0000       0.773717        21.0539 
 276   0.0000       0.780266        21.2321 
 277   0.0000       0.786919        21.4132 
 278   0.0000       0.802989        21.8504 
 279   0.0000       0.826647        22.4942 
 280   0.0000       0.834992        22.7213 
 281   0.0000       0.868989        23.6464 
 282   0.0000       0.874552        23.7978 
 283   0.0000       0.885141        24.0859 
 284   0.0000       0.886970        24.1357 
 285   0.0000       0.896197        24.3868 
 286   0.0000       0.900664        24.5083 
 287   0.0000       0.907165        24.6852 
 288   0.0000       0.919677        25.0257 
 289   0.0000       0.928122        25.2555 
 290   0.0000       0.931943        25.3595 
 291   0.0000       0.939264        25.5587 
 292   0.0000       0.945222        25.7208 
 293   0.0000       0.948620        25.8133 
 294   0.0000       0.950918        25.8758 
 295   0.0000       0.953007        25.9326 
 296   0.0000       0.953849        25.9555 
 297   0.0000       0.958368        26.0785 
 298   0.0000       0.960368        26.1329 
 299   0.0000       0.973867        26.5003 
 300   0.0000       0.974444        26.5160 
 301   0.0000       0.981220        26.7004 
 302   0.0000       0.985052        26.8046 
 303   0.0000       0.988027        26.8856 
 304   0.0000       0.994008        27.0483 
 305   0.0000       1.000665        27.2295 
 306   0.0000       1.013687        27.5838 
 307   0.0000       1.013923        27.5902 
 308   0.0000       1.017135        27.6776 
 309   0.0000       1.021482        27.7959 
 310   0.0000       1.022456        27.8225 
 311   0.0000       1.025780        27.9129 
 312   0.0000       1.035175        28.1685 
 313   0.0000       1.041937        28.3525 
 314   0.0000       1.045597        28.4522 
 315   0.0000       1.051230        28.6054 
 316   0.0000       1.056507        28.7490 
 317   0.0000       1.071911        29.1682 
 318   0.0000       1.073042        29.1990 
 319   0.0000       1.079731        29.3810 
 320   0.0000       1.083099        29.4726 
 321   0.0000       1.098656        29.8960 
 322   0.0000       1.104271        30.0488 
 323   0.0000       1.106375        30.1060 
 324   0.0000       1.110743        30.2248 
 325   0.0000       1.114091        30.3160 
 326   0.0000       1.124034        30.5865 
 327   0.0000       1.136212        30.9179 
 328   0.0000       1.146152        31.1884 
 329   0.0000       1.152912        31.3723 
 330   0.0000       1.160048        31.5665 
 331   0.0000       1.175505        31.9871 
 332   0.0000       1.185101        32.2482 
 333   0.0000       1.188419        32.3385 
 334   0.0000       1.201354        32.6905 
 335   0.0000       1.218115        33.1466 
 336   0.0000       1.220442        33.2099 
 337   0.0000       1.232852        33.5476 
 338   0.0000       1.249789        34.0085 
 339   0.0000       1.263152        34.3721 
 340   0.0000       1.273158        34.6444 
 341   0.0000       1.279530        34.8178 
 342   0.0000       1.295271        35.2461 
 343   0.0000       1.307453        35.5776 
 344   0.0000       1.330861        36.2146 
 345   0.0000       1.344362        36.5820 
 346   0.0000       1.364308        37.1247 
 347   0.0000       1.390589        37.8399 
 348   0.0000       1.401281        38.1308 
 349   0.0000       1.405387        38.2425 
 350   0.0000       1.424152        38.7531 
 351   0.0000       1.450522        39.4707 
 352   0.0000       1.460685        39.7473 
 353   0.0000       1.469863        39.9970 
 354   0.0000       1.472761        40.0759 
 355   0.0000       1.475589        40.1528 
 356   0.0000       1.486623        40.4531 
 357   0.0000       1.489726        40.5375 
 358   0.0000       1.501222        40.8503 
 359   0.0000       1.505697        40.9721 
 360   0.0000       1.518742        41.3271 
 361   0.0000       1.520398        41.3721 
 362   0.0000       1.547114        42.0991 
 363   0.0000       1.548162        42.1276 
 364   0.0000       1.555938        42.3392 
 365   0.0000       1.563541        42.5461 
 366   0.0000       1.568048        42.6688 
 367   0.0000       1.568908        42.6921 
 368   0.0000       1.569426        42.7062 
 369   0.0000       1.595462        43.4147 
 370   0.0000       1.596080        43.4315 
 371   0.0000       1.606424        43.7130 
 372   0.0000       1.611537        43.8521 
 373   0.0000       1.629019        44.3279 
 374   0.0000       1.634585        44.4793 
 375   0.0000       1.650463        44.9114 
 376   0.0000       1.659483        45.1568 
 377   0.0000       1.670072        45.4450 
 378   0.0000       1.696673        46.1688 
 379   0.0000       1.707610        46.4664 
 380   0.0000       1.709806        46.5262 
 381   0.0000       1.711095        46.5613 
 382   0.0000       1.722136        46.8617 
 383   0.0000       1.724717        46.9319 
 384   0.0000       1.727366        47.0040 
 385   0.0000       1.735859        47.2351 
 386   0.0000       1.737392        47.2768 
 387   0.0000       1.758546        47.8525 
 388   0.0000       1.762885        47.9705 
 389   0.0000       1.770146        48.1681 
 390   0.0000       1.784252        48.5520 
 391   0.0000       1.796694        48.8905 
 392   0.0000       1.805953        49.1425 
 393   0.0000       1.817039        49.4441 
 394   0.0000       1.831274        49.8315 
 395   0.0000       1.834406        49.9167 
 396   0.0000       1.843157        50.1548 
 397   0.0000       1.847179        50.2643 
 398   0.0000       1.861858        50.6637 
 399   0.0000       1.868875        50.8547 
 400   0.0000       1.869985        50.8849 
 401   0.0000       1.878536        51.1176 
 402   0.0000       1.885554        51.3085 
 403   0.0000       1.892057        51.4855 
 404   0.0000       1.898765        51.6680 
 405   0.0000       1.906892        51.8892 
 406   0.0000       1.909595        51.9627 
 407   0.0000       1.924767        52.3756 
 408   0.0000       1.924970        52.3811 
 409   0.0000       1.943872        52.8955 
 410   0.0000       1.958214        53.2857 
 411   0.0000       1.968489        53.5653 
 412   0.0000       1.984570        54.0029 
 413   0.0000       1.996174        54.3187 
 414   0.0000       2.002969        54.5036 
 415   0.0000       2.010436        54.7067 
 416   0.0000       2.019233        54.9461 
 417   0.0000       2.019901        54.9643 
 418   0.0000       2.022084        55.0237 
 419   0.0000       2.027827        55.1800 
 420   0.0000       2.029291        55.2198 
 421   0.0000       2.056795        55.9682 
 422   0.0000       2.070502        56.3412 
 423   0.0000       2.080236        56.6061 
 424   0.0000       2.080492        56.6131 
 425   0.0000       2.085989        56.7626 
 426   0.0000       2.101185        57.1762 
 427   0.0000       2.122807        57.7645 
 428   0.0000       2.130498        57.9738 
 429   0.0000       2.132040        58.0157 
 430   0.0000       2.134191        58.0743 
 431   0.0000       2.141069        58.2615 
 432   0.0000       2.166505        58.9536 
 433   0.0000       2.182310        59.3837 
 434   0.0000       2.186801        59.5059 
 435   0.0000       2.201000        59.8922 
 436   0.0000       2.218263        60.3620 
 437   0.0000       2.224975        60.5446 
 438   0.0000       2.238557        60.9142 
 439   0.0000       2.255130        61.3652 
 440   0.0000       2.279570        62.0302 
 441   0.0000       2.288445        62.2718 
 442   0.0000       2.305382        62.7326 
 443   0.0000       2.309473        62.8440 
 444   0.0000       2.331020        63.4303 
 445   0.0000       2.333770        63.5051 
 446   0.0000       2.346088        63.8403 
 447   0.0000       2.371810        64.5402 
 448   0.0000       2.385919        64.9242 
 449   0.0000       2.409874        65.5760 
 450   0.0000       2.457405        66.8694 
 451   0.0000       2.458953        66.9115 
 452   0.0000       2.472502        67.2802 
 453   0.0000       2.475294        67.3562 
 454   0.0000       2.489338        67.7383 
 455   0.0000       2.495270        67.8997 
 456   0.0000       2.519126        68.5489 
 457   0.0000       2.520637        68.5900 
 458   0.0000       2.540612        69.1336 
 459   0.0000       2.563911        69.7676 
 460   0.0000       2.592601        70.5483 
 461   0.0000       2.601531        70.7912 
 462   0.0000       2.606105        70.9157 
 463   0.0000       2.610030        71.0225 
 464   0.0000       2.643735        71.9397 
 465   0.0000       2.649911        72.1078 
 466   0.0000       2.666536        72.5601 
 467   0.0000       2.672968        72.7351 
 468   0.0000       2.694627        73.3245 
 469   0.0000       2.708677        73.7068 
 470   0.0000       2.714607        73.8682 
 471   0.0000       2.717623        73.9503 
 472   0.0000       2.721637        74.0595 
 473   0.0000       2.724622        74.1407 
 474   0.0000       2.729365        74.2698 
 475   0.0000       2.738904        74.5294 
 476   0.0000       2.740645        74.5768 
 477   0.0000       2.747310        74.7581 
 478   0.0000       2.766932        75.2920 
 479   0.0000       2.768031        75.3220 
 480   0.0000       2.773819        75.4794 
 481   0.0000       2.781541        75.6896 
 482   0.0000       2.788402        75.8763 
 483   0.0000       2.790243        75.9264 
 484   0.0000       2.806314        76.3637 
 485   0.0000       2.815298        76.6081 
 486   0.0000       2.816605        76.6437 
 487   0.0000       2.826166        76.9039 
 488   0.0000       2.833384        77.1003 
 489   0.0000       2.839452        77.2654 
 490   0.0000       2.847159        77.4751 
 491   0.0000       2.848660        77.5160 
 492   0.0000       2.862710        77.8983 
 493   0.0000       2.870532        78.1111 
 494   0.0000       2.884724        78.4973 
 495   0.0000       2.889073        78.6157 
 496   0.0000       2.905574        79.0647 
 497   0.0000       2.928214        79.6807 
 498   0.0000       2.933563        79.8263 
 499   0.0000       2.963470        80.6401 
 500   0.0000       2.986719        81.2728 
 501   0.0000       3.000508        81.6480 
 502   0.0000       3.005720        81.7898 
 503   0.0000       3.011238        81.9400 
 504   0.0000       3.016769        82.0905 
 505   0.0000       3.028694        82.4149 
 506   0.0000       3.046439        82.8978 
 507   0.0000       3.050834        83.0174 
 508   0.0000       3.060168        83.2714 
 509   0.0000       3.104748        84.4845 
 510   0.0000       3.113149        84.7131 
 511   0.0000       3.123600        84.9975 
 512   0.0000       3.137674        85.3804 
 513   0.0000       3.173957        86.3678 
 514   0.0000       3.179513        86.5190 
 515   0.0000       3.224160        87.7339 
 516   0.0000       3.236506        88.0698 
 517   0.0000       3.250832        88.4596 
 518   0.0000       3.281538        89.2952 
 519   0.0000       3.300009        89.7978 
 520   0.0000       3.307751        90.0085 
 521   0.0000       3.320603        90.3582 
 522   0.0000       3.354249        91.2738 
 523   0.0000       3.374736        91.8312 
 524   0.0000       3.378920        91.9451 
 525   0.0000       3.389663        92.2374 
 526   0.0000       3.409774        92.7847 
 527   0.0000       3.421682        93.1087 
 528   0.0000       3.448784        93.8462 
 529   0.0000       3.458678        94.1154 
 530   0.0000       3.474130        94.5359 
 531   0.0000       3.503047        95.3228 
 532   0.0000       3.508972        95.4840 
 533   0.0000       3.526670        95.9656 
 534   0.0000       3.538652        96.2916 
 535   0.0000       3.551702        96.6467 
 536   0.0000       3.567508        97.0768 
 537   0.0000       3.596520        97.8663 
 538   0.0000       3.637722        98.9874 
 539   0.0000       3.643748        99.1514 
 540   0.0000       3.678651       100.1012 
 541   0.0000       3.712032       101.0095 
 542   0.0000       3.794186       103.2450 
 543   0.0000       3.817847       103.8889 
 544   0.0000       3.823305       104.0374 
 545   0.0000       3.851301       104.7992 
 546   0.0000       4.028593       109.6236 
 547   0.0000       4.063257       110.5668 
 548   0.0000       4.074841       110.8821 
 549   0.0000       4.078490       110.9814 
 550   0.0000       4.082536       111.0915 
 551   0.0000       4.111509       111.8799 
 552   0.0000       4.161900       113.2511 
 553   0.0000       4.241913       115.4283 
 554   0.0000       4.308631       117.2438 
 555   0.0000       4.389774       119.4518 
 556   0.0000       4.522577       123.0656 
 557   0.0000       4.708369       128.1212 
 558   0.0000       4.732205       128.7699 
 559   0.0000       4.792711       130.4163 
 560   0.0000       4.827963       131.3756 
 561   0.0000       4.859828       132.2427 
 562   0.0000       4.890844       133.0866 
 563   0.0000       4.896564       133.2423 
 564   0.0000      23.326706       634.7520 
 565   0.0000      23.583830       641.7487 
 566   0.0000      23.666273       643.9920 
[...]
 761   88680.4    112.8     -0.00288  -0.07655  -0.05584   0.00006
 762   88717.9    112.7      0.00295  -0.17709  -0.09664  -0.00013
 763   88748.7    112.7      0.00900   0.11937   0.13613   0.00005
 764   88775.4    112.6     -0.03038   0.00002  -0.00032   0.36136
 765   88797.7    112.6      0.00535  -0.04915  -0.03494   0.00024
 766   88873.3    112.5      0.00326   0.04527   0.06560   0.00004
 767   88913.7    112.5     -0.00101  -0.10850  -0.28214  -0.00035
 768   88961.5    112.4      0.08377  -0.16725  -0.07864   0.00269
 769   88963.1    112.4     -0.07582   0.00213   0.00068   0.21704
 770   88998.3    112.4     -0.00404  -0.15405  -0.12986  -0.00011
 771   89094.3    112.2      0.00746  -0.26859  -0.09966  -0.00036
 772   89131.3    112.2     -0.02643   0.00074   0.00052   0.00171
 773   89143.9    112.2      0.01592   0.00053   0.00044  -0.17855
 774   89147.8    112.2      0.00627   0.17360   0.18557   0.00036
 775   89207.8    112.1      0.00050  -0.09816  -0.02813  -0.00001
 776   89247.0    112.0     -0.00762  -0.04730   0.01586  -0.00015
 777   89276.1    112.0      0.01288   0.00004   0.00022  -0.14369
 778   89290.4    112.0     -0.00315  -0.06293  -0.05129  -0.00026
 779   89348.0    111.9     -0.00637   0.00010  -0.00008   0.08465
 780   89398.5    111.9      0.01984   0.00019   0.00015  -0.36089
 781   89408.2    111.8      0.00355   0.20671  -0.09194   0.00026
 782   89423.7    111.8     -0.01042   0.16798  -0.02232  -0.00019
 783   89492.3    111.7      0.00044  -0.00005   0.00032  -0.33796
 784   89514.8    111.7      0.18235   0.21942   0.05346   0.00087
 785   89519.0    111.7     -0.25042   0.00344   0.00090  -0.08659
 786   89531.9    111.7      0.01257  -0.13757  -0.06128  -0.00012
 787   89539.1    111.7      0.03211  -0.33732  -0.04386  -0.00018
 788   89594.5    111.6     -0.00270  -0.00015  -0.00009   0.05186
 789   89620.9    111.6     -0.09579  -0.14237   0.12227   0.00118
 790   89634.6    111.6      0.04747   0.00048  -0.00069   0.20124
 791   89653.2    111.5     -0.00663   0.00214   0.09891   0.00054
 792   89667.0    111.5      0.04365   0.00033  -0.00079   0.38590
 793   89701.2    111.5      0.01846  -0.03593  -0.18065  -0.00077
 794   89750.3    111.4     -0.00553  -0.09663   0.03801  -0.00030
 795   89762.5    111.4      0.01148  -0.00030  -0.00045   0.23374
 796   89795.4    111.4      0.36367   0.13954   0.02051   0.01670
 797   89795.7    111.4     -0.37027   0.01388   0.00228  -0.16836
 798   89829.5    111.3      0.00225   0.06083   0.04288   0.00019
 799   89881.2    111.3     -0.00010   0.00006   0.00002  -0.00400
 800   89886.1    111.3      0.00058   0.00014  -0.00003   0.14168
 801   89931.0    111.2     -0.00177  -0.14645  -0.09334  -0.00011
 802   89967.4    111.2     -0.01465  -0.10677  -0.06711   0.00007
 803   90023.5    111.1     -0.00143  -0.00001  -0.00007   0.08445
 804   90070.5    111.0     -0.00237   0.08288   0.16932   0.00026
 805   90122.0    111.0      0.00141  -0.09220  -0.04377  -0.00007
 806   90143.4    110.9      0.01197   0.00013   0.00019  -0.03121
 807   90181.0    110.9     -0.00275  -0.13138  -0.07770   0.00001
 808   90198.1    110.9      0.00139  -0.00005   0.00005  -0.02563
 809   90247.4    110.8     -0.00007   0.01653  -0.02132  -0.00003
 810   90276.5    110.8     -0.00329   0.14614   0.14784   0.00015
 811   90343.0    110.7     -0.07761  -0.00108  -0.00091   0.06321
 812   90350.1    110.7      0.09063   0.19066   0.11024   0.00057
 813   90379.0    110.6     -0.01505  -0.09159   0.03251   0.00012
 814   90422.8    110.6     -0.00061   0.00011   0.00012  -0.10958
 815   90505.3    110.5      0.00645  -0.00004  -0.00028   0.20621
 816   90532.8    110.5      0.00035   0.03868   0.03569   0.00012
 817   90548.6    110.4     -0.00961  -0.09223  -0.16583  -0.00017
 818   90586.0    110.4      0.02673  -0.00033  -0.00047  -0.00680
 819   90616.9    110.4     -0.04098   0.00034   0.00040   0.06453
 820   90647.2    110.3      0.00286  -0.09071  -0.20231  -0.00013
 821   90676.4    110.3      0.05829  -0.00007   0.00128  -0.09179
 822   90693.4    110.3     -0.06371  -0.05032   0.15431   0.00053
 823   90698.2    110.3      0.01338   0.00023   0.00005   0.06177
 824   90723.5    110.2      0.00295  -0.14185   0.05858   0.00020
 825   90728.5    110.2      0.00984  -0.15234   0.12811   0.00019
 826   90813.4    110.1      0.00183   0.00009  -0.00002  -0.06949
 827   90857.6    110.1      0.00024   0.00000  -0.00003   0.01905
 828   90900.8    110.0      0.00227  -0.11879   0.25093   0.00022
 829   90929.9    110.0      0.00596   0.00000   0.00003   0.08619
 830   90986.4    109.9     -0.02184  -0.05500  -0.07858   0.00074
 831   90995.9    109.9      0.02118   0.00031   0.00027   0.17788
 832   91061.3    109.8      0.00371   0.00000  -0.00057   0.30640
 833   91074.1    109.8      0.00833   0.05148  -0.09907  -0.00044
 834   91114.2    109.8     -0.00216   0.05852   0.04946   0.00038
 835   91143.7    109.7      0.00054   0.00005  -0.00000  -0.05885
 836   91148.8    109.7     -0.00202   0.00886  -0.03395  -0.00009
 837   91204.5    109.6      0.00183   0.00410   0.08623   0.00018
 838   91224.9    109.6      0.00602  -0.09309  -0.23661  -0.00029
 839   91239.5    109.6      0.00003   0.00005  -0.00002  -0.09652
 840   91247.0    109.6      0.05487  -0.00045   0.00071  -0.02740
 841   91252.9    109.6     -0.05316   0.08297  -0.03854  -0.00004
 842   91282.2    109.6      0.01073  -0.17835  -0.09431  -0.00019
 843   91340.6    109.5      0.00200  -0.00011   0.00001  -0.00629
 844   91388.2    109.4     -0.04521   0.00075   0.00014  -0.16716
 845   91399.7    109.4      0.02807  -0.36535   0.01863  -0.00027
 846   91437.3    109.4      0.00596   0.04179   0.04937  -0.00005
 847   91464.9    109.3     -0.01175  -0.17371  -0.05804  -0.00004
 848   91503.2    109.3     -0.00218   0.08941  -0.06231  -0.00000
 849   91531.1    109.3      0.01531  -0.00012  -0.00011   0.03864
 850   91605.3    109.2     -0.01225  -0.00002  -0.00017   0.22608
 851   91635.2    109.1      0.00408   0.00005   0.00029  -0.00068
 852   91648.6    109.1      0.00280   0.01223  -0.10859  -0.00003
 853   91687.9    109.1     -0.00363  -0.32638   0.13017   0.00034
 854   91704.0    109.0      0.00365  -0.00044   0.00044  -0.21826
 855   91736.6    109.0     -0.04130  -0.20798   0.18537   0.00021
 856   91746.7    109.0      0.02948  -0.00059   0.00024   0.13397
 857   91815.5    108.9     -0.01237   0.00012   0.00017  -0.26046
 858   91840.5    108.9      0.04014  -0.36070   0.18928  -0.00019
 859   91868.2    108.9      0.00290  -0.06918  -0.06792  -0.00011
 860   91891.0    108.8     -0.05269   0.00038  -0.00034   0.24999
 861   91955.7    108.7      0.00030  -0.00037   0.00002   0.13980
 862   92033.7    108.7     -0.00302   0.13960   0.03483   0.00006
 863   92063.4    108.6      0.01039  -0.00002   0.00012  -0.24629
 864   92112.8    108.6      0.00453   0.07562   0.13247  -0.00028
 865   92133.6    108.5     -0.03152  -0.00013   0.00035  -0.35811
 866   92156.1    108.5      0.00520  -0.00021  -0.00002  -0.08221
 867   92168.7    108.5      0.00364   0.12099   0.07202  -0.00036
 868   92190.7    108.5      0.00270   0.00009   0.00010  -0.00269
 869   92228.3    108.4     -0.00110  -0.09016   0.09019   0.00024
 870   92251.8    108.4      0.00550  -0.09632   0.36624   0.00051
 871   92259.0    108.4      0.01206   0.00003  -0.00006  -0.06123
 872   92297.0    108.3     -0.00776  -0.09023   0.09862   0.00007
 873   92318.9    108.3      0.00912  -0.10787  -0.07281   0.00023
 874   92330.0    108.3     -0.00238  -0.00016   0.00015  -0.18259
 875   92338.5    108.3      0.02576  -0.00026   0.00009   0.07507
 876   92434.7    108.2      0.02089   0.14168  -0.40999  -0.00044
 877   92443.6    108.2     -0.03354  -0.00016   0.00089   0.01688
 878   92482.3    108.1     -0.01918   0.10350   0.02714  -0.00135
 879   92488.8    108.1      0.02113   0.00047  -0.00041   0.36005
 880   92604.6    108.0     -0.01700  -0.00046   0.00025  -0.14981
 881   92630.8    108.0      0.02395   0.19719  -0.09036  -0.00081
 882   92653.5    107.9     -0.00607  -0.00000   0.00006  -0.11936
 883   92689.5    107.9      0.00307   0.20937  -0.12068   0.00057
 884   92709.0    107.9      0.00889  -0.00003   0.00036  -0.41680
 885   92737.8    107.8     -0.03791   0.21326  -0.06162  -0.00046
 886   92756.9    107.8      0.02181   0.00022  -0.00020   0.17658
 887   92796.3    107.8     -0.00588   0.05659  -0.00603  -0.00020
 888   92827.9    107.7     -0.00798  -0.09662   0.02319   0.00020
 889   92858.2    107.7     -0.00170   0.01311  -0.01294  -0.00006
 890   92877.8    107.7      0.02560   0.00018   0.00012  -0.05299
 891   92905.3    107.6     -0.00571   0.00007  -0.00007   0.05038
 892   92958.7    107.6      0.01739   0.00012  -0.00013   0.03647
 893   92966.1    107.6     -0.01426  -0.12672   0.10233   0.00014
 894   92977.9    107.6     -0.01454   0.21673  -0.01572  -0.00026
 895   93012.6    107.5      0.01311  -0.00014   0.00007  -0.14830
 896   93022.5    107.5      0.00021   0.03365  -0.01119   0.00041
 897   93139.7    107.4     -0.00294   0.00003  -0.00020   0.16800
 898   93150.1    107.4      0.00795  -0.04042  -0.04477  -0.00054
 899   93180.6    107.3      0.00855  -0.24610  -0.13064  -0.00001
 900   93209.5    107.3     -0.00539  -0.01458  -0.05911  -0.00012
 901   93237.8    107.3      0.00326  -0.00548   0.00893  -0.00021
 902   93289.4    107.2      0.06191  -0.00050  -0.00039   0.08227
 903   93291.0    107.2     -0.05022  -0.04622  -0.02431  -0.00075
 904   93313.6    107.2      0.08531  -0.00045  -0.00058  -0.27177
 905   93338.6    107.1     -0.12239   0.11029   0.25323  -0.00055
 906   93385.1    107.1      0.00943   0.00030  -0.00033   0.11777
 907   93389.5    107.1      0.00105  -0.08334   0.06705   0.00025
 908   93418.0    107.0     -0.02986   0.00001   0.00043  -0.32908
 909   93444.9    107.0     -0.01357  -0.00019   0.00013  -0.12890
 910   93482.2    107.0     -0.00743  -0.16450  -0.04537   0.00018
 911   93494.4    107.0      0.05022  -0.00070  -0.00046   0.08531
 912   93512.6    106.9      0.10830  -0.16271  -0.01915  -0.00095
 913   93523.5    106.9     -0.04097   0.00058   0.00957  -0.48732
 914   93524.4    106.9     -0.01961  -0.01603  -0.39385  -0.01181
 915   93554.1    106.9      0.00615  -0.15359  -0.12442  -0.00031
 916   93561.3    106.9      0.10709   0.00030   0.00053   0.19563
 917   93564.5    106.9     -0.13071  -0.06298  -0.11807   0.00175
 918   93588.4    106.9     -0.02714  -0.03496   0.05387   0.00041
 919   93654.3    106.8     -0.00403  -0.09517  -0.00073   0.00008
 920   93683.6    106.7     -0.00133   0.00003   0.00000   0.02559
 921   93740.9    106.7      0.01121  -0.00015   0.00023  -0.31701
 922   93760.0    106.7      0.74827  -0.15776   0.03628   0.00855
 923   93761.5    106.7     -0.68036  -0.00427   0.00135  -0.34661
 924   93779.1    106.6     -0.01869  -0.23294  -0.00377   0.00062
 925   93798.9    106.6     -0.08363   0.00074  -0.00016  -0.06648
 926   93818.1    106.6      0.00295   0.06211   0.06021  -0.00029
 927   93829.6    106.6     -0.01035  -0.00008  -0.00057  -0.04335
 928   93842.9    106.6      0.02253   0.03820  -0.10648  -0.00006
 929   93899.8    106.5      0.02029   0.00836  -0.00621  -0.00022
 930   93910.7    106.5     -0.01191   0.00000  -0.00021   0.19257
 931   93942.6    106.4      0.00485  -0.00012   0.00030  -0.25974
 932   94028.8    106.4     -0.00283   0.00003   0.00013  -0.09661
 933   94044.8    106.3     -0.03498  -0.00122  -0.01649   0.00068
 934   94051.9    106.3      0.01774   0.00007  -0.00021   0.25507
 935   94099.4    106.3      0.01172   0.01330   0.05641   0.00018
 936   94151.6    106.2      0.03144   0.10530   0.02938   0.00027
 937   94177.3    106.2     -0.02312  -0.00001  -0.00007   0.14785
 938   94233.0    106.1     -0.00304  -0.00006   0.00013  -0.07803
 939   94249.9    106.1     -0.00573  -0.14362  -0.25763  -0.00048
 940   94276.7    106.1      0.04413  -0.03966   0.06142   0.00038
 941   94288.0    106.1      0.31619   0.15656  -0.07985   0.00118
 942   94296.1    106.0     -0.34333  -0.00104   0.00023   0.24453
 943   94348.2    106.0     -0.05800  -0.00002  -0.00100   0.12718
 944   94355.6    106.0      0.05330   0.00645   0.22493   0.00053
 945   94391.9    105.9     -0.02882  -0.11385   0.26516  -0.00002
 946   94438.7    105.9      0.00504  -0.00004  -0.00015   0.04309
 947   94511.0    105.8      0.02051   0.15351  -0.15125  -0.00006
 948   94557.0    105.8      0.05900  -0.00047   0.00040  -0.03095
 949   94575.6    105.7     -0.01575   0.22884   0.08673  -0.00004
 950   94613.0    105.7     -0.00239   0.18473   0.13323  -0.00008
 951   94647.0    105.7     -0.00985   0.00049  -0.00014   0.11159
 952   94674.0    105.6     -0.06281   0.31457  -0.03576  -0.00098
 953   94695.3    105.6      0.05639   0.00110  -0.00020   0.23778
 954   94791.7    105.5      0.07842   0.00116  -0.00133   0.30432
 955   94793.1    105.5     -0.08474   0.14928  -0.11432  -0.00225
 956   94857.9    105.4     -0.00468  -0.31914   0.04920  -0.00015
 957   94870.3    105.4      0.01114   0.00003   0.00019   0.00290
 958   94931.4    105.3     -0.01569  -0.03419   0.41222   0.00036
 959   94939.8    105.3      0.01422  -0.00011   0.00019   0.14055
 960   94969.2    105.3      0.14522  -0.00076   0.00112   0.33343
 961   94975.4    105.3     -0.12701  -0.05482   0.15537  -0.00278
 962   95010.0    105.3      0.00665   0.08922   0.01912  -0.00026
 963   95046.9    105.2     -0.01118   0.16275  -0.03864   0.00045
 964   95058.1    105.2      0.01865   0.09255  -0.05683  -0.00042
 965   95073.3    105.2     -0.11452   0.00071   0.00018   0.20148
 966   95080.7    105.2      0.10044  -0.13506  -0.09155   0.00091
 967   95107.6    105.1     -0.01740  -0.00005   0.00018  -0.25951
 968   95182.9    105.1     -0.00941   0.07352  -0.08824  -0.00027
 969   95221.5    105.0     -0.00556  -0.14116   0.00600   0.00021
 970   95231.5    105.0      0.00658  -0.00020   0.00012  -0.10790
 971   95245.5    105.0      0.00647  -0.16680   0.22483   0.00003
 972   95265.2    105.0     -0.00554   0.14652   0.00015  -0.00004
 973   95318.0    104.9     -0.00615   0.15541  -0.02649   0.00012
 974   95337.7    104.9      0.02919   0.00017   0.00005  -0.21461
 975   95366.7    104.9      0.06249   0.00026   0.00063  -0.22013
 976   95376.7    104.8     -0.00707   0.01035   0.19333   0.00027
 977   95398.8    104.8     -0.06103  -0.09764  -0.14926  -0.00082
 978   95454.7    104.8     -0.01591   0.00005  -0.00051   0.03033
 979   95482.9    104.7     -0.12298   0.10068  -0.02950   0.00132
 980   95485.4    104.7      0.10575   0.00131  -0.00021  -0.09594
 981   95534.6    104.7      0.00220  -0.01267   0.14820   0.00017
 982   95574.4    104.6     -0.01930   0.01911  -0.09432   0.00017
 983   95600.3    104.6     -0.04109  -0.07576   0.16194  -0.00043
 984   95604.6    104.6      0.06460   0.00083  -0.00155  -0.07770
 985   95647.3    104.6      0.08691   0.00067  -0.00001  -0.17315
 986   95662.2    104.5     -0.11232  -0.23477   0.13263  -0.00019
 987   95684.6    104.5      0.01514  -0.01799   0.23892   0.00032
 988   95712.5    104.5      0.01941   0.00000   0.00015   0.18084
 989   95718.6    104.5      0.01746  -0.16254   0.05296   0.00005
 990   95763.3    104.4      0.00331  -0.00011  -0.00002   0.07116
 991   95776.0    104.4     -0.03314   0.08295  -0.00395  -0.00102
 992   95785.8    104.4     -0.02147   0.00056  -0.00068   0.13178
 993   95808.9    104.4      0.00711  -0.00296  -0.20564  -0.00150
 994   95819.2    104.4      0.00866  -0.00008   0.00089  -0.33459
 995   95841.9    104.3     -0.00782  -0.12588   0.03680   0.00017
 996   95867.4    104.3      0.00195  -0.00016  -0.00000   0.13303
 997   95883.4    104.3      0.00381  -0.00075   0.00804  -0.00024
 998   95918.5    104.3      0.03655  -0.05852   0.13635  -0.00027
 999   95922.7    104.3      0.01678  -0.00009   0.00055   0.00663
 1000   95941.9    104.2     -0.00496   0.21898  -0.18248  -0.00019

Total run time:    17401.789 sec

           *** ORCA-CIS/TD-DFT FINISHED WITHOUT ERROR ***

Maximum memory used throughout the entire CIS-calculation: 4364.5 MB

-----------------------
CIS/TD-DFT TOTAL ENERGY
-----------------------

    E(SCF)  =   -920.101522131 Eh
    DE(CIS) =      0.068292553 Eh (Root  1)
    ----------------------------- ---------
    E(tot)  =   -920.033229578 Eh



-------------------------------------------------------------------------------
                          DFT DISPERSION CORRECTION                            
                                                                               
                                 DFTD4 V2.5                                    
-------------------------------------------------------------------------------
The B3LYP functional is recognized
Active option DFTDOPT                   ...         5   

Starting D4
-------------------------   ----------------
Dispersion correction           -0.100862332
-------------------------   ----------------


-------------------------   --------------------
FINAL SINGLE POINT ENERGY      -920.134091910136
-------------------------   --------------------


                            ***************************************
                            *     ORCA property calculations      *
                            ***************************************

                                    ---------------------
                                    Active property flags
                                    ---------------------
   (+) Dipole Moment


------------------------------------------------------------------------------
                       ORCA ELECTRIC PROPERTIES CALCULATION
------------------------------------------------------------------------------

Dipole Moment Calculation                       ... on
Quadrupole Moment Calculation                   ... off
Polarizability Calculation                      ... off
GBWName                                         ... Stone-Wales_defect_loss_two.gbw
Electron density                                ... Stone-Wales_defect_loss_two.scfp
The origin for moment calculation is the CENTER OF MASS  = ( 0.060081,  0.017498  0.014119)

-------------
DIPOLE MOMENT
-------------
                                X             Y             Z
Electronic contribution:     -7.87016       0.63627       0.00054
Nuclear contribution   :      8.66865      -0.38663      -0.00028
                        -----------------------------------------
Total Dipole Moment    :      0.79849       0.24964       0.00026
                        -----------------------------------------
Magnitude (a.u.)       :      0.83661
Magnitude (Debye)      :      2.12649



--------------------
Rotational spectrum 
--------------------
 
Rotational constants in cm-1:     0.013376     0.009373     0.005511 
Rotational constants in MHz :   401.010047   280.985288   165.218027 

 Dipole components along the rotational axes: 
x,y,z [a.u.] :    -0.144425     0.824047     0.000004 
x,y,z [Debye]:    -0.367099     2.094562     0.000011 

 

Timings for individual modules:

Sum of individual times         ...    18143.112 sec (= 302.385 min)
GTO integral calculation        ...        0.845 sec (=   0.014 min)   0.0 %
SCF iterations                  ...      740.320 sec (=  12.339 min)   4.1 %
CIS module                      ...    17401.947 sec (= 290.032 min)  95.9 %
                             ****ORCA TERMINATED NORMALLY****
TOTAL RUN TIME: 0 days 5 hours 2 minutes 23 seconds 916 msec
