
                                 *****************
                                 * O   R   C   A *
                                 *****************

                                            #,                                       
                                            ###                                      
                                            ####                                     
                                            #####                                    
                                            ######                                   
                                           ########,                                 
                                     ,,################,,,,,                         
                               ,,#################################,,                 
                          ,,##########################################,,             
                       ,#########################################, ''#####,          
                    ,#############################################,,   '####,        
                  ,##################################################,,,,####,       
                ,###########''''           ''''###############################       
              ,#####''   ,,,,##########,,,,          '''####'''          '####       
            ,##' ,,,,###########################,,,                        '##       
           ' ,,###''''                  '''############,,,                           
         ,,##''                                '''############,,,,        ,,,,,,###''
      ,#''                                            '''#######################'''  
     '                                                          ''''####''''         
             ,#######,   #######,   ,#######,      ##                                
            ,#'     '#,  ##    ##  ,#'     '#,    #''#        ######   ,####,        
            ##       ##  ##   ,#'  ##            #'  '#       #        #'  '#        
            ##       ##  #######   ##           ,######,      #####,   #    #        
            '#,     ,#'  ##    ##  '#,     ,#' ,#      #,         ##   #,  ,#        
             '#######'   ##     ##  '#######'  #'      '#     #####' # '####'        



                  #######################################################
                  #                        -***-                        #
                  #          Department of theory and spectroscopy      #
                  #    Directorship and core code : Frank Neese         #
                  #        Max Planck Institute fuer Kohlenforschung    #
                  #                Kaiser Wilhelm Platz 1               #
                  #                 D-45470 Muelheim/Ruhr               #
                  #                      Germany                        #
                  #                                                     #
                  #                  All rights reserved                #
                  #                        -***-                        #
                  #######################################################



                         Program Version 5.0.4 -  RELEASE  -

 With contributions from (in alphabetic order):
   Daniel Aravena         : Magnetic Suceptibility
   Michael Atanasov       : Ab Initio Ligand Field Theory (pilot matlab implementation)
   Alexander A. Auer      : GIAO ZORA, VPT2 properties, NMR spectrum
   Ute Becker             : Parallelization
   Giovanni Bistoni       : ED, misc. LED, open-shell LED, HFLD
   Martin Brehm           : Molecular dynamics
   Dmytro Bykov           : SCF Hessian
   Vijay G. Chilkuri      : MRCI spin determinant printing, contributions to CSF-ICE
   Dipayan Datta          : RHF DLPNO-CCSD density
   Achintya Kumar Dutta   : EOM-CC, STEOM-CC
   Dmitry Ganyushin       : Spin-Orbit,Spin-Spin,Magnetic field MRCI
   Miquel Garcia          : C-PCM and meta-GGA Hessian, CC/C-PCM, Gaussian charge scheme
   Yang Guo               : DLPNO-NEVPT2, F12-NEVPT2, CIM, IAO-localization
   Andreas Hansen         : Spin unrestricted coupled pair/coupled cluster methods
   Benjamin Helmich-Paris : MC-RPA, TRAH-SCF, COSX integrals
   Lee Huntington         : MR-EOM, pCC
   Robert Izsak           : Overlap fitted RIJCOSX, COSX-SCS-MP3, EOM
   Marcus Kettner         : VPT2
   Christian Kollmar      : KDIIS, OOCD, Brueckner-CCSD(T), CCSD density, CASPT2, CASPT2-K
   Simone Kossmann        : Meta GGA functionals, TD-DFT gradient, OOMP2, MP2 Hessian
   Martin Krupicka        : Initial AUTO-CI
   Lucas Lang             : DCDCAS
   Marvin Lechner         : AUTO-CI (C++ implementation), FIC-MRCC
   Dagmar Lenk            : GEPOL surface, SMD
   Dimitrios Liakos       : Extrapolation schemes; Compound Job, initial MDCI parallelization
   Dimitrios Manganas     : Further ROCIS development; embedding schemes
   Dimitrios Pantazis     : SARC Basis sets
   Anastasios Papadopoulos: AUTO-CI, single reference methods and gradients
   Taras Petrenko         : DFT Hessian,TD-DFT gradient, ASA, ECA, R-Raman, ABS, FL, XAS/XES, NRVS
   Peter Pinski           : DLPNO-MP2, DLPNO-MP2 Gradient
   Christoph Reimann      : Effective Core Potentials
   Marius Retegan         : Local ZFS, SOC
   Christoph Riplinger    : Optimizer, TS searches, QM/MM, DLPNO-CCSD(T), (RO)-DLPNO pert. Triples
   Tobias Risthaus        : Range-separated hybrids, TD-DFT gradient, RPA, STAB
   Michael Roemelt        : Original ROCIS implementation
   Masaaki Saitow         : Open-shell DLPNO-CCSD energy and density
   Barbara Sandhoefer     : DKH picture change effects
   Avijit Sen             : IP-ROCIS
   Kantharuban Sivalingam : CASSCF convergence, NEVPT2, FIC-MRCI
   Bernardo de Souza      : ESD, SOC TD-DFT
   Georgi Stoychev        : AutoAux, RI-MP2 NMR, DLPNO-MP2 response
   Willem Van den Heuvel  : Paramagnetic NMR
   Boris Wezisla          : Elementary symmetry handling
   Frank Wennmohs         : Technical directorship


 We gratefully acknowledge several colleagues who have allowed us to
 interface, adapt or use parts of their codes:
   Stefan Grimme, W. Hujo, H. Kruse, P. Pracht,  : VdW corrections, initial TS optimization,
                  C. Bannwarth, S. Ehlert          DFT functionals, gCP, sTDA/sTD-DF
   Ed Valeev, F. Pavosevic, A. Kumar             : LibInt (2-el integral package), F12 methods
   Garnet Chan, S. Sharma, J. Yang, R. Olivares  : DMRG
   Ulf Ekstrom                                   : XCFun DFT Library
   Mihaly Kallay                                 : mrcc  (arbitrary order and MRCC methods)
   Jiri Pittner, Ondrej Demel                    : Mk-CCSD
   Frank Weinhold                                : gennbo (NPA and NBO analysis)
   Christopher J. Cramer and Donald G. Truhlar   : smd solvation model
   Lars Goerigk                                  : TD-DFT with DH, B97 family of functionals
   V. Asgeirsson, H. Jonsson                     : NEB implementation
   FAccTs GmbH                                   : IRC, NEB, NEB-TS, DLPNO-Multilevel, CI-OPT
                                                   MM, QMMM, 2- and 3-layer-ONIOM, Crystal-QMMM,
                                                   LR-CPCM, SF, NACMEs, symmetry and pop. for TD-DFT,
                                                   nearIR, NL-DFT gradient (VV10), updates on ESD,
                                                   ML-optimized integration grids
   S Lehtola, MJT Oliveira, MAL Marques          : LibXC Library
   Liviu Ungur et al                             : ANISO software


 Your calculation uses the libint2 library for the computation of 2-el integrals
 For citations please refer to: http://libint.valeyev.net

 Your ORCA version has been built with support for libXC version: 5.1.0
 For citations please refer to: https://tddft.org/programs/libxc/

 This ORCA versions uses:
   CBLAS   interface :  Fast vector & matrix operations
   LAPACKE interface :  Fast linear algebra routines
   Shared memory     :  Shared parallel matrices


Your calculation utilizes the atom-pairwise dispersion correction
based on tight binding partial charges (D4)
Cite in your paper:
E.Caldeweyher, C.Bannwarth, S.Grimme, J.Chem.Phys., (2017), 147, 034112.
E.Caldeweyher, S.Ehlert, A.Hansen, H.Neugebauer, S.Grimme, J.Chem.Phys., (2018), in progress.
   

================================================================================

----- Orbital basis set information -----
Your calculation utilizes the basis: 6-311+G**
   H, Li - Ne  : R. Krishnan, J. S. Binkley, R. Seeger and J. A. Pople, J. Chem. Phys. 72, 650 (1980).
   Na - Ar     : A. D. McLean and G. S. Chandler J. Chem. Phys. 72, 5639, (1980).
   K  - Ca     : J.-P. Blaudeau, M. P. McGrath, L. A. Curtiss and L. Radom, J. Chem. Phys. 107, 5016 (1997).
   Ga - Kr     : L. A. Curtiss, M. P. McGrath, J.-P. Blandeau, N. E. Davis, R. C. Binning and L. Radom, J. Chem. Phys. 103, 6104 (1995).
   Pol./Diff.
   H, Li - Cl  : T. Clark, J. Chandrasekhar and P. v. R. Schleyer, J. Comp. Chem. 4, 294 (1983).
   H - Ne      : M. J. Frisch, J. A. Pople and J. S. Binkley, J. Chem. Phys. 80, 3265 (1984).

----- AuxJ basis set information -----
Your calculation utilizes the auxiliary basis: def2/J
   F. Weigend, Phys. Chem. Chem. Phys. 8, 1057 (2006).

================================================================================
                                        WARNINGS
                       Please study these warnings very carefully!
================================================================================

INFO   : Checking CIS options ...

WARNING: CIS/ROCIS methods need fully converged wavefunctions
  ===> : Setting SCFConvForced true
         You can overwrite this default with %scf ConvForced false 


INFO   : the flag for use of the SHARK integral package has been found!

================================================================================
                                       INPUT FILE
================================================================================
NAME = loss_eight_seven_eleven_twelve_three_four_spectra.inp
|  1> !b3lyp 6-311+g** d4

|  2> 

|  3> %maxcore 5000

|  4> %pal

|  5> nprocs 8

|  6> end

|  7> 

|  8> %tddft

|  9>   nroots 1000

| 10>   end

| 11>   

| 12> * xyz 0 1

| 13>   C   2.49641452804617     -2.85907498480531     -0.00000597779035

| 14>   C   1.31567630589836     -3.56021203108843     -0.00003520585551

| 15>   C   0.08632952627393     -2.87948684319022     -0.00011047457834

| 16>   C   -1.21257247768970     -3.41723602801014     -0.00015037115020

| 17>   C   -2.28380304445604     -2.81683832588672     -0.00021787810340

| 18>   C   -2.50170439807205     -1.42783366413625     -0.00027068116031

| 19>   C   -3.72341786437277     -0.73357385173854     -0.00034700654079

| 20>   C   -3.74046546193441      0.63955286645760     -0.00039016084572

| 21>   C   -2.53628569379753      1.36376792258368     -0.00035780437167

| 22>   C   -2.35247422108511      2.75764682070294     -0.00039185857111

| 23>   C   -1.29664067470505      3.38477841467350     -0.00036352928552

| 24>   C   0.01516910407842      2.87904993929199     -0.00029019003610

| 25>   C   1.22721477680234      3.59007810672967     -0.00025922992230

| 26>   C   2.42491000584187      2.91834295630444     -0.00018750277290

| 27>   C   2.45001364451078      1.51339856984634     -0.00014460212453

| 28>   C   3.56515347201664      0.65729985444830     -0.00006959203824

| 29>   C   3.58074439728958     -0.57062135719716     -0.00003172323828

| 30>   C   2.48690381465749     -1.45393182951080     -0.00005054324779

| 31>   C   1.24719510834868     -0.70745230184383     -0.00012872085773

| 32>   C   1.22926910960684      0.73632684113963     -0.00017122484632

| 33>   C   -0.01152507743542      1.43233055414097     -0.00024905260043

| 34>   C   -1.25303077452105      0.69501897585913     -0.00027927847044

| 35>   C   -1.23541134188052     -0.72750578219663     -0.00023698938836

| 36>   C   0.02400486047475     -1.43385403430940     -0.00015756011390

| 37>   H   3.44874154393178     -3.37403970623979      0.00005268050898

| 38>   H   1.31216828014358     -4.64285425087905     -0.00000163764577

| 39>   H   -4.64543425601824     -1.30103633941580     -0.00037194733449

| 40>   H   -4.67623349402223      1.18402750178709     -0.00044956303027

| 41>   H   1.19655146335024      4.67228651893198     -0.00029319862223

| 42>   H   3.36434926021425      3.45644941563876     -0.00016371182323

| 43> **                         ****END OF INPUT****
================================================================================

                       ****************************
                       * Single Point Calculation *
                       ****************************

---------------------------------
CARTESIAN COORDINATES (ANGSTROEM)
---------------------------------
  C      2.496415   -2.859075   -0.000006
  C      1.315676   -3.560212   -0.000035
  C      0.086330   -2.879487   -0.000110
  C     -1.212572   -3.417236   -0.000150
  C     -2.283803   -2.816838   -0.000218
  C     -2.501704   -1.427834   -0.000271
  C     -3.723418   -0.733574   -0.000347
  C     -3.740465    0.639553   -0.000390
  C     -2.536286    1.363768   -0.000358
  C     -2.352474    2.757647   -0.000392
  C     -1.296641    3.384778   -0.000364
  C      0.015169    2.879050   -0.000290
  C      1.227215    3.590078   -0.000259
  C      2.424910    2.918343   -0.000188
  C      2.450014    1.513399   -0.000145
  C      3.565153    0.657300   -0.000070
  C      3.580744   -0.570621   -0.000032
  C      2.486904   -1.453932   -0.000051
  C      1.247195   -0.707452   -0.000129
  C      1.229269    0.736327   -0.000171
  C     -0.011525    1.432331   -0.000249
  C     -1.253031    0.695019   -0.000279
  C     -1.235411   -0.727506   -0.000237
  C      0.024005   -1.433854   -0.000158
  H      3.448742   -3.374040    0.000053
  H      1.312168   -4.642854   -0.000002
  H     -4.645434   -1.301036   -0.000372
  H     -4.676233    1.184028   -0.000450
  H      1.196551    4.672287   -0.000293
  H      3.364349    3.456449   -0.000164

----------------------------
CARTESIAN COORDINATES (A.U.)
----------------------------
  NO LB      ZA    FRAG     MASS         X           Y           Z
   0 C     6.0000    0    12.011    4.717540   -5.402869   -0.000011
   1 C     6.0000    0    12.011    2.486268   -6.727826   -0.000067
   2 C     6.0000    0    12.011    0.163139   -5.441442   -0.000209
   3 C     6.0000    0    12.011   -2.291430   -6.457640   -0.000284
   4 C     6.0000    0    12.011   -4.315762   -5.323053   -0.000412
   5 C     6.0000    0    12.011   -4.727536   -2.698215   -0.000512
   6 C     6.0000    0    12.011   -7.036240   -1.386254   -0.000656
   7 C     6.0000    0    12.011   -7.068455    1.208580   -0.000737
   8 C     6.0000    0    12.011   -4.792885    2.577148   -0.000676
   9 C     6.0000    0    12.011   -4.445532    5.211197   -0.000741
  10 C     6.0000    0    12.011   -2.450296    6.396304   -0.000687
  11 C     6.0000    0    12.011    0.028665    5.440616   -0.000548
  12 C     6.0000    0    12.011    2.319100    6.784264   -0.000490
  13 C     6.0000    0    12.011    4.582416    5.514869   -0.000354
  14 C     6.0000    0    12.011    4.629855    2.859909   -0.000273
  15 C     6.0000    0    12.011    6.737164    1.242117   -0.000132
  16 C     6.0000    0    12.011    6.766626   -1.078318   -0.000060
  17 C     6.0000    0    12.011    4.699567   -2.747533   -0.000096
  18 C     6.0000    0    12.011    2.356857   -1.336891   -0.000243
  19 C     6.0000    0    12.011    2.322982    1.391456   -0.000324
  20 C     6.0000    0    12.011   -0.021779    2.706712   -0.000471
  21 C     6.0000    0    12.011   -2.367885    1.313396   -0.000528
  22 C     6.0000    0    12.011   -2.334589   -1.374787   -0.000448
  23 C     6.0000    0    12.011    0.045363   -2.709591   -0.000298
  24 H     1.0000    0     1.008    6.517177   -6.376011    0.000100
  25 H     1.0000    0     1.008    2.479639   -8.773723   -0.000003
  26 H     1.0000    0     1.008   -8.778599   -2.458602   -0.000703
  27 H     1.0000    0     1.008   -8.836801    2.237488   -0.000850
  28 H     1.0000    0     1.008    2.261155    8.829342   -0.000554
  29 H     1.0000    0     1.008    6.357699    6.531743   -0.000309

--------------------------------
INTERNAL COORDINATES (ANGSTROEM)
--------------------------------
 C      0   0   0     0.000000000000     0.00000000     0.00000000
 C      1   0   0     1.373220997424     0.00000000     0.00000000
 C      2   1   0     1.405233180535   120.32305370     0.00000000
 C      3   2   1     1.405816703296   128.53572496   179.99998329
 C      4   3   2     1.228011535958   128.24077345   180.00010047
 C      5   4   3     1.405992515293   128.18519274     0.00000000
 C      6   5   4     1.405197668186   128.52381558   180.00004996
 C      7   6   5     1.373232539182   120.31945324   179.99999306
 C      8   7   6     1.405181967774   120.31214665     0.00000000
 C      9   8   7     1.405946315221   128.53572286   180.00003204
 C     10   9   8     1.228038482549   128.22124271   180.00001664
 C     11  10   9     1.405918273550   128.20840092     0.00000000
 C     12  11  10     1.405210222215   128.51999835   179.99990493
 C     13  12  11     1.373208643698   120.31645993   180.00008658
 C     14  13  12     1.405168645948   120.30982671     0.00000000
 C     15  14  13     1.405859826235   128.53729494   180.00007095
 C     16  15  14     1.228020187291   128.24108499   179.99996102
 C      1   2   3     1.405175342271   120.31456689     0.00000000
 C     18   1   2     1.447103786131   121.44167372     0.00000000
 C     19  18   1     1.443890424150   121.76522238   179.99982979
 C     20  19  18     1.422670513213   120.00090043   179.99995081
 C     21  20  19     1.443940705250   120.00500902     0.00000000
 C     22  21  20     1.422633871900   119.99580897     0.00000000
 C     19  18   1     1.422622177619   118.24181511     0.00000000
 H      1   2   3     1.082642791020   120.89561087   179.99995413
 H      2   1   3     1.082647903727   120.88801923   179.99995752
 H      7   6   5     1.082648558862   118.78128955     0.00000000
 H      8   7   6     1.082642342569   120.90419390   179.99996617
 H     13  12  11     1.082642733032   118.77438372     0.00000000
 H     14  13  12     1.082637831779   120.90994742   179.99996332

---------------------------
INTERNAL COORDINATES (A.U.)
---------------------------
 C      0   0   0     0.000000000000     0.00000000     0.00000000
 C      1   0   0     2.595011606481     0.00000000     0.00000000
 C      2   1   0     2.655505865511   120.32305370     0.00000000
 C      3   2   1     2.656608563722   128.53572496   179.99998329
 C      4   3   2     2.320605492257   128.24077345   180.00010047
 C      5   4   3     2.656940800247   128.18519274     0.00000000
 C      6   5   4     2.655438756897   128.52381558   180.00004996
 C      7   6   5     2.595033417244   120.31945324   179.99999306
 C      8   7   6     2.655409087417   120.31214665     0.00000000
 C      9   8   7     2.656853494763   128.53572286   180.00003204
 C     10   9   8     2.320656413933   128.22124271   180.00001664
 C     11  10   9     2.656800503685   128.20840092     0.00000000
 C     12  11  10     2.655462480573   128.51999835   179.99990493
 C     13  12  11     2.594988261322   120.31645993   180.00008658
 C     14  13  12     2.655383912814   120.30982671     0.00000000
 C     15  14  13     2.656690054267   128.53729494   180.00007095
 C     16  15  14     2.320621840906   128.24108499   179.99996102
 C      1   2   3     2.655396567031   120.31456689     0.00000000
 C     18   1   2     2.734629843149   121.44167372     0.00000000
 C     19  18   1     2.728557469035   121.76522238   179.99982979
 C     20  19  18     2.688457648778   120.00090043   179.99995081
 C     21  20  19     2.728652486544   120.00500902     0.00000000
 C     22  21  20     2.688388406731   119.99580897     0.00000000
 C     19  18   1     2.688366307743   118.24181511     0.00000000
 H      1   2   3     2.045898375893   120.89561087   179.99995413
 H      2   1   3     2.045908037508   120.88801923   179.99995752
 H      7   6   5     2.045909275534   118.78128955     0.00000000
 H      8   7   6     2.045897528442   120.90419390   179.99996617
 H     13  12  11     2.045898266311   118.77438372     0.00000000
 H     14  13  12     2.045889004285   120.90994742   179.99996332

---------------------
BASIS SET INFORMATION
---------------------
There are 2 groups of distinct atoms

 Group   1 Type C   : 12s6p1d contracted to 5s4p1d pattern {63111/3111/1}
 Group   2 Type H   : 5s1p contracted to 3s1p pattern {311/1}

Atom   0C    basis set group =>   1
Atom   1C    basis set group =>   1
Atom   2C    basis set group =>   1
Atom   3C    basis set group =>   1
Atom   4C    basis set group =>   1
Atom   5C    basis set group =>   1
Atom   6C    basis set group =>   1
Atom   7C    basis set group =>   1
Atom   8C    basis set group =>   1
Atom   9C    basis set group =>   1
Atom  10C    basis set group =>   1
Atom  11C    basis set group =>   1
Atom  12C    basis set group =>   1
Atom  13C    basis set group =>   1
Atom  14C    basis set group =>   1
Atom  15C    basis set group =>   1
Atom  16C    basis set group =>   1
Atom  17C    basis set group =>   1
Atom  18C    basis set group =>   1
Atom  19C    basis set group =>   1
Atom  20C    basis set group =>   1
Atom  21C    basis set group =>   1
Atom  22C    basis set group =>   1
Atom  23C    basis set group =>   1
Atom  24H    basis set group =>   2
Atom  25H    basis set group =>   2
Atom  26H    basis set group =>   2
Atom  27H    basis set group =>   2
Atom  28H    basis set group =>   2
Atom  29H    basis set group =>   2
---------------------------------
AUXILIARY/J BASIS SET INFORMATION
---------------------------------
There are 2 groups of distinct atoms

 Group   1 Type C   : 12s5p4d2f1g contracted to 6s4p3d1f1g pattern {711111/2111/211/2/1}
 Group   2 Type H   : 5s2p1d contracted to 3s1p1d pattern {311/2/1}

Atom   0C    basis set group =>   1
Atom   1C    basis set group =>   1
Atom   2C    basis set group =>   1
Atom   3C    basis set group =>   1
Atom   4C    basis set group =>   1
Atom   5C    basis set group =>   1
Atom   6C    basis set group =>   1
Atom   7C    basis set group =>   1
Atom   8C    basis set group =>   1
Atom   9C    basis set group =>   1
Atom  10C    basis set group =>   1
Atom  11C    basis set group =>   1
Atom  12C    basis set group =>   1
Atom  13C    basis set group =>   1
Atom  14C    basis set group =>   1
Atom  15C    basis set group =>   1
Atom  16C    basis set group =>   1
Atom  17C    basis set group =>   1
Atom  18C    basis set group =>   1
Atom  19C    basis set group =>   1
Atom  20C    basis set group =>   1
Atom  21C    basis set group =>   1
Atom  22C    basis set group =>   1
Atom  23C    basis set group =>   1
Atom  24H    basis set group =>   2
Atom  25H    basis set group =>   2
Atom  26H    basis set group =>   2
Atom  27H    basis set group =>   2
Atom  28H    basis set group =>   2
Atom  29H    basis set group =>   2


           ************************************************************
           *        Program running with 8 parallel MPI-processes     *
           *              working on a common directory               *
           ************************************************************
------------------------------------------------------------------------------
                           ORCA GTO INTEGRAL CALCULATION
                           -- RI-GTO INTEGRALS CHOSEN --
------------------------------------------------------------------------------
------------------------------------------------------------------------------
                   ___                                                        
                  /   \      - P O W E R E D   B Y -                         
                 /     \                                                     
                 |  |  |   _    _      __       _____    __    __             
                 |  |  |  | |  | |    /  \     |  _  \  |  |  /  |          
                  \  \/   | |  | |   /    \    | | | |  |  | /  /          
                 / \  \   | |__| |  /  /\  \   | |_| |  |  |/  /          
                |  |  |   |  __  | /  /__\  \  |    /   |      \           
                |  |  |   | |  | | |   __   |  |    \   |  |\   \          
                \     /   | |  | | |  |  |  |  | |\  \  |  | \   \       
                 \___/    |_|  |_| |__|  |__|  |_| \__\ |__|  \__/        
                                                                              
                      - O R C A' S   B I G   F R I E N D -                    
                                      &                                       
                       - I N T E G R A L  F E E D E R -                       
                                                                              
 v1 FN, 2020, v2 2021                                                         
------------------------------------------------------------------------------


Reading SHARK input file loss_eight_seven_eleven_twelve_three_four_spectra.SHARKINP.tmp ... ok
----------------------
SHARK INTEGRAL PACKAGE
----------------------

Number of atoms                             ...     30
Number of basis functions                   ...    564
Number of shells                            ...    264
Maximum angular momentum                    ...      2
Integral batch strategy                     ... SHARK/LIBINT Hybrid
RI-J (if used) integral strategy            ... SPLIT-RIJ (Revised 2003 algorithm where possible)
Printlevel                                  ...      1
Contraction scheme used                     ... SEGMENTED contraction
Coulomb Range Separation                    ... NOT USED
Exchange Range Separation                   ... NOT USED
Finite Nucleus Model                        ... NOT USED
Auxiliary Coulomb fitting basis             ... AVAILABLE
   # of basis functions in Aux-J            ...   1242
   # of shells in Aux-J                     ...    390
   Maximum angular momentum in Aux-J        ...      4
Auxiliary J/K fitting basis                 ... NOT available
Auxiliary Correlation fitting basis         ... NOT available
Auxiliary 'external' fitting basis          ... NOT available
Integral threshold                          ...     1.000000e-10
Primitive cut-off                           ...     1.000000e-11
Primitive pair pre-selection threshold      ...     1.000000e-11

Calculating pre-screening integrals         ... done (  0.0 sec) Dimension = 264
Organizing shell pair data                  ... done (  0.2 sec)
Shell pair information
Total number of shell pairs                 ...     34980
Shell pairs after pre-screening             ...     28387
Total number of primitive shell pairs       ...    121800
Primitive shell pairs kept                  ...     64428
          la=0 lb=0:   7356 shell pairs
          la=1 lb=0:  11715 shell pairs
          la=1 lb=1:   4595 shell pairs
          la=2 lb=0:   2456 shell pairs
          la=2 lb=1:   2028 shell pairs
          la=2 lb=2:    237 shell pairs

Calculating one electron integrals          ... done (  0.0 sec)
Calculating RI/J V-Matrix + Cholesky decomp.... done (  0.1 sec)
Calculating Nuclear repulsion               ... done (  0.0 sec) ENN=   1723.598638991060 Eh

SHARK setup successfully completed in   0.5 seconds

Maximum memory used throughout the entire GTOINT-calculation: 39.0 MB


           ************************************************************
           *        Program running with 8 parallel MPI-processes     *
           *              working on a common directory               *
           ************************************************************
-------------------------------------------------------------------------------
                                 ORCA SCF
-------------------------------------------------------------------------------

------------
SCF SETTINGS
------------
Hamiltonian:
 Density Functional     Method          .... DFT(GTOs)
 Exchange Functional    Exchange        .... B88
   X-Alpha parameter    XAlpha          ....  0.666667
   Becke's b parameter  XBeta           ....  0.004200
 Correlation Functional Correlation     .... LYP
 LDA part of GGA corr.  LDAOpt          .... VWN-5
 Gradients option       PostSCFGGA      .... off
 Hybrid DFT is turned on
   Fraction HF Exchange ScalHFX         ....  0.200000
   Scaling of DF-GGA-X  ScalDFX         ....  0.720000
   Scaling of DF-GGA-C  ScalDFC         ....  0.810000
   Scaling of DF-LDA-C  ScalLDAC        ....  1.000000
   Perturbative correction              ....  0.000000
   Density functional embedding theory  .... OFF
   NL short-range parameter             ....  4.800000
 RI-approximation to the Coulomb term is turned on
   Number of AuxJ basis functions       .... 1242
   RIJ-COSX (HFX calculated with COS-X)).... on


General Settings:
 Integral files         IntName         .... loss_eight_seven_eleven_twelve_three_four_spectra
 Hartree-Fock type      HFTyp           .... RHF
 Total Charge           Charge          ....    0
 Multiplicity           Mult            ....    1
 Number of Electrons    NEL             ....  150
 Basis Dimension        Dim             ....  564
 Nuclear Repulsion      ENuc            ....   1723.5986389911 Eh

Convergence Acceleration:
 DIIS                   CNVDIIS         .... on
   Start iteration      DIISMaxIt       ....    12
   Startup error        DIISStart       ....  0.200000
   # of expansion vecs  DIISMaxEq       ....     5
   Bias factor          DIISBfac        ....   1.050
   Max. coefficient     DIISMaxC        ....  10.000
 Trust-Rad. Augm. Hess. CNVTRAH         .... auto
   Auto Start mean grad. ratio tolernc. ....  1.125000
   Auto Start start iteration           ....    20
   Auto Start num. interpolation iter.  ....    10
   Max. Number of Micro iterations      ....    16
   Max. Number of Macro iterations      .... Maxiter - #DIIS iter
   Number of Davidson start vectors     ....     2
   Converg. threshold I  (grad. norm)   ....   5.000e-05
   Converg. threshold II (energy diff.) ....   1.000e-06
   Grad. Scal. Fac. for Micro threshold ....   0.100
   Minimum threshold for Micro iter.    ....   0.010
   NR start threshold (gradient norm)   ....   0.001
   Initial trust radius                 ....   0.400
   Minimum AH scaling param. (alpha)    ....   1.000
   Maximum AH scaling param. (alpha)    .... 1000.000
   Orbital update algorithm             .... Taylor
   White noise on init. David. guess    .... on
   Maximum white noise                  ....   0.010
   Quad. conv. algorithm                .... NR
 SOSCF                  CNVSOSCF        .... on
   Start iteration      SOSCFMaxIt      ....   150
   Startup grad/error   SOSCFStart      ....  0.003300
 Level Shifting         CNVShift        .... on
   Level shift para.    LevelShift      ....    0.2500
   Turn off err/grad.   ShiftErr        ....    0.0010
 Zerner damping         CNVZerner       .... off
 Static damping         CNVDamp         .... on
   Fraction old density DampFac         ....    0.7000
   Max. Damping (<1)    DampMax         ....    0.9800
   Min. Damping (>=0)   DampMin         ....    0.0000
   Turn off err/grad.   DampErr         ....    0.1000
 Fernandez-Rico         CNVRico         .... off

SCF Procedure:
 Maximum # iterations   MaxIter         ....   125
 SCF integral mode      SCFMode         .... Direct
   Integral package                     .... SHARK and LIBINT hybrid scheme
 Reset frequency        DirectResetFreq ....    20
 Integral Threshold     Thresh          ....  1.000e-10 Eh
 Primitive CutOff       TCut            ....  1.000e-11 Eh

Convergence Tolerance:
 Convergence Check Mode ConvCheckMode   .... Total+1el-Energy
 Convergence forced     ConvForced      .... 1
 Energy Change          TolE            ....  1.000e-06 Eh
 1-El. energy change                    ....  1.000e-03 Eh
 Orbital Gradient       TolG            ....  5.000e-05
 Orbital Rotation angle TolX            ....  5.000e-05
 DIIS Error             TolErr          ....  1.000e-06


Diagonalization of the overlap matrix:
Smallest eigenvalue                        ... 2.172e-10
Time for diagonalization                   ...    0.028 sec
Threshold for overlap eigenvalues          ... 1.000e-08
Number of eigenvalues below threshold      ... 4
Smallest eigenvalue above threshold        ... 1.075e-08
Time for construction of square roots      ...    0.038 sec
Total time needed                          ...    0.067 sec

Time for model grid setup =    0.288 sec

------------------------------
INITIAL GUESS: MODEL POTENTIAL
------------------------------
Loading Hartree-Fock densities                     ... done
Calculating cut-offs                               ... done
Initializing the effective Hamiltonian             ... done
Setting up the integral package (SHARK)            ... done
Starting the Coulomb interaction                   ... done (   0.4 sec)
Reading the grid                                   ... done
Mapping shells                                     ... done
Starting the XC term evaluation                    ... done (   0.4 sec)
  promolecular density results
     # of electrons  =    149.984636907
     EX              =   -125.197891479
     EC              =     -5.152818219
     EX+EC           =   -130.350709698
Transforming the Hamiltonian                       ... done (   0.0 sec)
Diagonalizing the Hamiltonian                      ... done (   0.0 sec)
Back transforming the eigenvectors                 ... done (   0.0 sec)
Now organizing SCF variables                       ... done
                      ------------------
                      INITIAL GUESS DONE (   1.2 sec)
                      ------------------
-------------------
DFT GRID GENERATION
-------------------

General Integration Accuracy     IntAcc      ... 4.388
Radial Grid Type                 RadialGrid  ... OptM3 with GC (2021)
Angular Grid (max. ang.)         AngularGrid ... 4 (Lebedev-302)
Angular grid pruning method      GridPruning ... 4 (adaptive)
Weight generation scheme         WeightScheme... Becke
Basis function cutoff            BFCut       ... 1.0000e-10
Integration weight cutoff        WCut        ... 1.0000e-14
Angular grids for H and He will be reduced by one unit
Partially contracted basis set               ... off
Rotationally invariant grid construction     ... off

Total number of grid points                  ...   167173
Total number of batches                      ...     2628
Average number of points per batch           ...       63
Average number of grid points per atom       ...     5572
Time for grid setup =    1.098 sec

--------------------
COSX GRID GENERATION
--------------------

GRIDX 1
-------
General Integration Accuracy     IntAcc      ... 3.816
Radial Grid Type                 RadialGrid  ... OptM3 with GC (2021)
Angular Grid (max. ang.)         AngularGrid ... 1 (Lebedev-50)
Angular grid pruning method      GridPruning ... 4 (adaptive)
Weight generation scheme         WeightScheme... Becke
Basis function cutoff            BFCut       ... 1.0000e-10
Integration weight cutoff        WCut        ... 1.0000e-14
Angular grids for H and He will be reduced by one unit
Partially contracted basis set               ... on
Rotationally invariant grid construction     ... off

Total number of grid points                  ...    21167
Total number of batches                      ...      344
Average number of points per batch           ...       61
Average number of grid points per atom       ...      706
UseSFitting                                  ... on

GRIDX 2
-------
General Integration Accuracy     IntAcc      ... 4.020
Radial Grid Type                 RadialGrid  ... OptM3 with GC (2021)
Angular Grid (max. ang.)         AngularGrid ... 2 (Lebedev-110)
Angular grid pruning method      GridPruning ... 4 (adaptive)
Weight generation scheme         WeightScheme... Becke
Basis function cutoff            BFCut       ... 1.0000e-10
Integration weight cutoff        WCut        ... 1.0000e-14
Angular grids for H and He will be reduced by one unit
Partially contracted basis set               ... on
Rotationally invariant grid construction     ... off

Total number of grid points                  ...    52338
Total number of batches                      ...      836
Average number of points per batch           ...       62
Average number of grid points per atom       ...     1745
UseSFitting                                  ... on

GRIDX 3
-------
General Integration Accuracy     IntAcc      ... 4.338
Radial Grid Type                 RadialGrid  ... OptM3 with GC (2021)
Angular Grid (max. ang.)         AngularGrid ... 3 (Lebedev-194)
Angular grid pruning method      GridPruning ... 4 (adaptive)
Weight generation scheme         WeightScheme... Becke
Basis function cutoff            BFCut       ... 1.0000e-10
Integration weight cutoff        WCut        ... 1.0000e-14
Angular grids for H and He will be reduced by one unit
Partially contracted basis set               ... on
Rotationally invariant grid construction     ... off

Total number of grid points                  ...   113459
Total number of batches                      ...     1787
Average number of points per batch           ...       63
Average number of grid points per atom       ...     3782
UseSFitting                                  ... on

Time for X-Grid setup             =    1.733 sec

--------------
SCF ITERATIONS
--------------
ITER       Energy         Delta-E        Max-DP      RMS-DP      [F,P]     Damp
               ***  Starting incremental Fock matrix formation  ***
  0   -917.1826485323   0.000000000000156.74614958  1.02734360  0.1390397 0.7000
  1   -917.3312922896  -0.1486437573027265656.01503037 49041.73673680  0.0759666 0.7000
                               ***Turning on DIIS***
  2   -916.5803889871   0.75090330247615659072.66536643 114700.60162843  0.0261100 0.0000
  3   -914.4083487140   2.172040273136441468.21887621 5861.06783347  0.0851352 0.0000
  4   -914.4835532923  -0.0752045782691618252.78263520 19851.63111227  0.0518513 0.0000
  5   -914.5077763475  -0.0242230552136566028.42380812 62282.07814566  0.0362295 0.0000
  6   -914.3590309921   0.1487453554248610241.34867730 90535.69521286  0.0205739 0.0000
  7   -912.3108698174   2.0481611746774098997.16236929 49122.04206278  0.0710050 0.0000
  8   -912.2241650035   0.0867048139367797959.00810082 72985.42660714  0.0657602 0.0000
  9   -910.0869953222   2.137169681246308261.46741965 3640.72451797  0.1281021 0.7000
 10   -910.0799802336   0.0070150886261522215.65461178 15989.01566038  0.1282856 0.7000
 11   -910.1313113316  -0.051331098061556435.60578317 8194.85841476  0.1310425 0.7000
 12   -910.1988825705  -0.0675712388711548465.14072764 16371.60837713  0.1156879 0.7000
 13   -910.2689696549  -0.07008708440210554115.09431582 97296.65845767  0.0979825 0.0000
 14   -911.7546710173  -1.485701362374253806.08151872 2434.87006687  0.1945270 0.7000
 15   -911.8990831751  -0.144412157790571682.15433103 4943.20071872  0.1592349 0.7000
 16   -912.0338526756  -0.1347695005472938312.49852528 16776.80826186  0.1248011 0.7000
 17   -912.1682258454  -0.13437316976414448420.37611433 80046.23024369  0.0963897 0.0000
 18   -912.5224690896  -0.3542432441793503843.92392099 26805.15168510  0.0233080 0.0000
 19   -912.5779480399  -0.0554789503509470635.04610333 69941.60420529  0.0095531 0.0000
               *** Restarting incremental Fock matrix formation ***
                                   *** Resetting DIIS ***
 20   -915.8429080013  -3.26495996133424432326.63502975 182348.57096000  0.0971139 0.0000
 21   -916.1279826448  -0.2850746435977045028.14002742 90346.79660536  0.0745347 0.0000
 22   -916.2580792032  -0.1300965583207987672.42147481 63443.30978179  0.0219066 0.0000
 23   -916.2117532721   0.04632593105914335953.27389159 103992.26504108  0.0182777 0.0000
 24   -914.6865093250   1.525243947140216738.96583705 2374.58479366  0.0468134 0.0000

 WARNING: the maximum gradient error descreased on average only by a factor   1.1
          during the last 20 iterations

                      *** Initiating the TRAH-SCF procedure ***


TRAH GRIDX
----------

General Integration Accuracy     IntAcc      ... 3.067
Radial Grid Type                 RadialGrid  ... OptM3 with GC (2021)
Angular Grid (max. ang.)         AngularGrid ... 1 (Lebedev-50)
Angular grid pruning method      GridPruning ... 4 (adaptive)
Weight generation scheme         WeightScheme... Becke
Basis function cutoff            BFCut       ... 1.0000e-10
Integration weight cutoff        WCut        ... 1.0000e-14
Angular grids for H and He will be reduced by one unit
Partially contracted basis set               ... on
Rotationally invariant grid construction     ... off

Total number of grid points                  ...    11465
Total number of batches                      ...      192
Average number of points per batch           ...       59
Average number of grid points per atom       ...      382


TRAH GRID
---------

General Integration Accuracy     IntAcc      ... 3.467
Radial Grid Type                 RadialGrid  ... OptM3 with GC (2021)
Angular Grid (max. ang.)         AngularGrid ... 1 (Lebedev-50)
Angular grid pruning method      GridPruning ... 4 (adaptive)
Weight generation scheme         WeightScheme... Becke
Basis function cutoff            BFCut       ... 1.0000e-10
Integration weight cutoff        WCut        ... 1.0000e-14
Angular grids for H and He will be reduced by one unit
Partially contracted basis set               ... off
Rotationally invariant grid construction     ... off

Total number of grid points                  ...    25905
Total number of batches                      ...      420
Average number of points per batch           ...       61
Average number of grid points per atom       ...      864

 --------------------------------------------------------------------------------------------
   Iter.        energy            ||Error||_2        Shift      TRadius  Mac/Mic        Rej.
 --------------------------------------------------------------------------------------------
WARNING: 254 diagonal Hessian elements are negative!
    0       -914.695773133189     2.074114e+00                     0.400 (TRAH MAcro)   No
WARNING : negative HOMO - LUMO gap : -0.771541
    0     dE    -5.088188e-01     2.835093e+00    -1.1750e+00      0.400 (TRAH MIcro)
    0     dE    -6.852819e-01     7.511572e-01    -4.0604e+00      0.400 (TRAH MIcro)
    0     dE    -6.930540e-01     2.904473e-01    -4.1182e+00      0.400 (TRAH MIcro)
    0     dE    -6.953320e-01     4.747863e-02    -4.0860e+00      0.400 (TRAH MIcro)
    0     dE    -6.953335e-01     5.096636e-02    -4.0865e+00      0.400 (TRAH MIcro)
    0     dE    -6.954122e-01     4.273095e-02    -4.0899e+00      0.400 (TRAH MIcro)
    0     dE    -6.954125e-01     4.213915e-02    -4.0902e+00      0.400 (TRAH MIcro)
    0     dE    -6.954204e-01     4.367587e-02    -4.0907e+00      0.400 (TRAH MIcro)
    0     dE    -6.954378e-01     4.779408e-02    -4.0918e+00      0.400 (TRAH MIcro)
    0     dE    -6.954389e-01     4.796129e-02    -4.0918e+00      0.400 (TRAH MIcro)
    0     dE    -6.954434e-01     4.895415e-02    -4.0924e+00      0.400 (TRAH MIcro)
    0     dE    -6.954779e-01     5.424243e-02    -4.0937e+00      0.400 (TRAH MIcro)
    0     dE    -6.954894e-01     5.797433e-02    -4.0940e+00      0.400 (TRAH MIcro)
    0     dE    -6.954997e-01     5.610478e-02    -4.0945e+00      0.400 (TRAH MIcro)
WARNING: 174 diagonal Hessian elements are negative!
    1       -915.111164797121     1.419071e+00                     0.400 (TRAH MAcro)   No
WARNING : negative HOMO - LUMO gap : -0.588138
    1     dE    -4.143387e-01     1.026836e+00    -1.6316e+00      0.400 (TRAH MIcro)
    1     dE    -4.729622e-01     2.274179e-01    -2.6419e+00      0.400 (TRAH MIcro)
    1     dE    -4.744340e-01     9.440215e-02    -2.6420e+00      0.400 (TRAH MIcro)
    1     dE    -4.745454e-01     7.151862e-02    -2.6382e+00      0.400 (TRAH MIcro)
    1     dE    -4.746307e-01     8.606615e-02    -2.6396e+00      0.400 (TRAH MIcro)
    1     dE    -4.746657e-01     9.013414e-02    -2.6395e+00      0.400 (TRAH MIcro)
    1     dE    -4.747290e-01     8.958272e-02    -2.6411e+00      0.400 (TRAH MIcro)
    1     dE    -4.747304e-01     8.896695e-02    -2.6412e+00      0.400 (TRAH MIcro)
    1     dE    -4.749306e-01     1.035697e-01    -2.6490e+00      0.400 (TRAH MIcro)
    1     dE    -3.741690e-01     1.050639e-01    -3.5899e+00      0.306 (TRAH MIcro)
    1     dE    -3.741422e-01     7.579143e-02    -3.5939e+00      0.306 (TRAH MIcro)
    1     dE    -3.740760e-01     7.997562e-02    -3.5949e+00      0.305 (TRAH MIcro)
    1     dE    -3.746531e-01     1.070982e-01    -3.5981e+00      0.306 (TRAH MIcro)
    1     dE    -3.746646e-01     1.071336e-01    -3.5982e+00      0.306 (TRAH MIcro)
WARNING: 111 diagonal Hessian elements are negative!
    2       -915.339423275286     9.955968e-01                     0.400 (TRAH MAcro)   No
WARNING : negative HOMO - LUMO gap : -0.475403
    2     dE    -2.485743e-01     2.572060e+00    -6.1820e-01      0.400 (TRAH MIcro)
    2     dE    -3.127070e-01     3.913150e-01    -1.6427e+00      0.400 (TRAH MIcro)
    2     dE    -3.151276e-01     9.343606e-02    -1.6684e+00      0.400 (TRAH MIcro)
    2     dE    -2.457831e-01     2.278830e-01    -2.4070e+00      0.299 (TRAH MIcro)
    2     dE    -2.441094e-01     6.365657e-02    -2.4111e+00      0.296 (TRAH MIcro)
    2     dE    -2.429679e-01     2.749906e-02    -2.4123e+00      0.294 (TRAH MIcro)
    2     dE    -2.428038e-01     3.015794e-02    -2.4126e+00      0.294 (TRAH MIcro)
    2     dE    -2.427018e-01     3.167639e-02    -2.4127e+00      0.294 (TRAH MIcro)
    2     dE    -2.431213e-01     4.053176e-02    -2.4136e+00      0.294 (TRAH MIcro)
    2     dE    -2.431391e-01     4.119276e-02    -2.4136e+00      0.294 (TRAH MIcro)
    2     dE    -2.431929e-01     4.303005e-02    -2.4137e+00      0.294 (TRAH MIcro)
    2     dE    -2.432112e-01     4.460277e-02    -2.4140e+00      0.294 (TRAH MIcro)
    2     dE    -2.432876e-01     4.588139e-02    -2.4141e+00      0.295 (TRAH MIcro)
    2     dE    -2.432760e-01     4.749585e-02    -2.4141e+00      0.294 (TRAH MIcro)
WARNING: 77 diagonal Hessian elements are negative!
    3       -915.535714367059     7.009883e-01                     0.480 (TRAH MAcro)   No
WARNING : negative HOMO - LUMO gap : -0.435944
    3     dE    -1.665046e-01     1.386908e+00    -2.8560e-01      0.407 (TRAH MIcro)
    3     dE    -2.382506e-01     3.414661e-01    -1.0438e+00      0.448 (TRAH MIcro)
    3     dE    -3.200889e-01     3.434844e-01    -1.8632e+00      0.480 (TRAH MIcro)
    3     dE    -3.294887e-01     1.039801e-01    -2.0010e+00      0.480 (TRAH MIcro)
    3     dE    -3.306054e-01     5.114231e-02    -2.0239e+00      0.480 (TRAH MIcro)
    3     dE    -3.307430e-01     5.110150e-02    -2.0266e+00      0.480 (TRAH MIcro)
    3     dE    -3.307607e-01     4.245791e-02    -2.0267e+00      0.480 (TRAH MIcro)
    3     dE    -3.308323e-01     4.406770e-02    -2.0278e+00      0.480 (TRAH MIcro)
    3     dE    -3.308786e-01     6.101458e-02    -2.0293e+00      0.480 (TRAH MIcro)
    3     dE    -3.308852e-01     5.805083e-02    -2.0290e+00      0.480 (TRAH MIcro)
    3     dE    -3.309890e-01     7.686394e-02    -2.0300e+00      0.480 (TRAH MIcro)
    3     dE    -3.310700e-01     9.839666e-02    -2.0319e+00      0.480 (TRAH MIcro)
    3     dE    -3.311328e-01     1.027990e-01    -2.0327e+00      0.480 (TRAH MIcro)
    3     dE    -3.311648e-01     9.555260e-02    -2.0325e+00      0.480 (TRAH MIcro)
WARNING: 33 diagonal Hessian elements are negative!
    4       -915.903115498958     7.517737e-01                     0.576 (TRAH MAcro)   No
WARNING : negative HOMO - LUMO gap : -0.340644
    4     dE    -1.559927e-01     5.499947e+00    -2.7513e-01      0.366 (TRAH MIcro)
    4     dE    -5.002394e-01     4.195531e-01    -1.8062e+00      0.576 (TRAH MIcro)
    4     dE    -5.105210e-01     1.146942e-01    -1.8783e+00      0.576 (TRAH MIcro)
    4     dE    -5.117590e-01     3.964341e-02    -1.8936e+00      0.576 (TRAH MIcro)
    4     dE    -5.118211e-01     2.370343e-02    -1.8952e+00      0.576 (TRAH MIcro)
    4     dE    -5.118991e-01     3.543300e-02    -1.8960e+00      0.576 (TRAH MIcro)
    4     dE    -5.119859e-01     4.378658e-02    -1.8967e+00      0.576 (TRAH MIcro)
    4     dE    -5.120072e-01     3.894460e-02    -1.8974e+00      0.576 (TRAH MIcro)
    4     dE    -5.120061e-01     3.993900e-02    -1.8974e+00      0.576 (TRAH MIcro)
    4     dE    -5.120213e-01     3.792992e-02    -1.8980e+00      0.576 (TRAH MIcro)
    4     dE    -5.120774e-01     4.017781e-02    -1.9002e+00      0.576 (TRAH MIcro)
    4     dE    -5.121208e-01     4.588064e-02    -1.9012e+00      0.576 (TRAH MIcro)
    4     dE    -5.121497e-01     4.818557e-02    -1.9013e+00      0.576 (TRAH MIcro)
    4     dE    -5.121513e-01     4.755278e-02    -1.9012e+00      0.576 (TRAH MIcro)
WARNING: 13 diagonal Hessian elements are negative!
    5       -916.445788085967     6.741481e-01                     0.691 (TRAH MAcro)   No
WARNING : negative HOMO - LUMO gap : -0.266719
    5     dE    -2.067143e-01     1.429701e+00    -3.3252e-01      0.493 (TRAH MIcro)
    5     dE    -2.873241e-01     5.549277e-01    -4.1033e-01      0.633 (TRAH MIcro)
    5     dE    -3.402090e-01     7.072148e-01    -5.7590e-01      0.691 (TRAH MIcro)
    5     dE    -3.052831e-01     3.074877e-01    -1.0880e+00      0.552 (TRAH MIcro)
    5     dE    -4.189915e-01     1.894821e-01    -1.1852e+00      0.691 (TRAH MIcro)
    5     dE    -4.232558e-01     1.005903e-01    -1.2156e+00      0.691 (TRAH MIcro)
    5     dE    -4.241522e-01     4.467057e-02    -1.2217e+00      0.691 (TRAH MIcro)
    5     dE    -1.723753e-01     1.813023e-01    -1.6643e+00      0.304 (TRAH MIcro)
    5     dE    -1.719479e-01     1.564455e-02    -1.6683e+00      0.302 (TRAH MIcro)
    5     dE    -1.719461e-01     1.509080e-02    -1.6683e+00      0.302 (TRAH MIcro)
    5     dE    -1.719473e-01     1.576692e-02    -1.6683e+00      0.302 (TRAH MIcro)
    5     dE    -1.719489e-01     1.524387e-02    -1.6683e+00      0.302 (TRAH MIcro)
    5     dE    -1.719548e-01     1.506088e-02    -1.6683e+00      0.302 (TRAH MIcro)
    5     dE    -1.719656e-01     1.990970e-02    -1.6684e+00      0.302 (TRAH MIcro)
WARNING: 11 diagonal Hessian elements are negative!
    6       -916.672494551542     4.925225e-01                     0.829 (TRAH MAcro)   No
WARNING : negative HOMO - LUMO gap : -0.246258
    6     dE    -1.110481e-01     1.144149e+00    -1.9261e-01      0.391 (TRAH MIcro)
    6     dE    -4.360145e-01     9.746560e-01    -8.4488e-01      0.829 (TRAH MIcro)
    6     dE    -5.366141e-01     3.820431e-01    -1.2112e+00      0.829 (TRAH MIcro)
    6     dE    -5.484463e-01     1.370257e-01    -1.2558e+00      0.829 (TRAH MIcro)
    6     dE    -5.498482e-01     6.680332e-02    -1.2613e+00      0.829 (TRAH MIcro)
    6     dE    -5.501669e-01     2.807840e-02    -1.2628e+00      0.829 (TRAH MIcro)
    6     dE    -5.502399e-01     2.957936e-02    -1.2634e+00      0.829 (TRAH MIcro)
    6     dE    -5.498991e-01     6.644169e-02    -1.2648e+00      0.829 (TRAH MIcro)
    6     dE    -5.506565e-01     6.065579e-02    -1.2653e+00      0.829 (TRAH MIcro)
    6     dE    -5.502445e-01     4.839016e-02    -1.2654e+00      0.829 (TRAH MIcro)
    6     dE    -5.501788e-01     4.761105e-02    -1.2654e+00      0.829 (TRAH MIcro)
    6     dE    -5.503193e-01     4.606461e-02    -1.2654e+00      0.829 (TRAH MIcro)
    6     dE    -5.502386e-01     4.228503e-02    -1.2654e+00      0.829 (TRAH MIcro)
    6     dE    -5.503788e-01     4.546797e-02    -1.2654e+00      0.829 (TRAH MIcro)
    7       -917.278470990261     5.682430e-01                     0.995 (TRAH MAcro)   No
    7     dE    -6.729842e-02     1.453319e+00    -1.2809e-01      0.225 (TRAH MIcro)
    7     dE    -2.408633e-01     8.571188e-01    -3.3044e-01      0.677 (TRAH MIcro)
    7     dE    -2.561692e-01     1.348555e-01    -3.4413e-01      0.699 (TRAH MIcro)
    7     dE    -2.571669e-01     3.916485e-02    -3.4523e-01      0.700 (TRAH MIcro)
    7     dE    -2.571187e-01     2.363968e-02    -3.4530e-01      0.699 (TRAH MIcro)
    7     dE    -2.570035e-01     1.874371e-02    -3.4533e-01      0.699 (TRAH MIcro)
    7     dE    -2.570961e-01     2.661755e-02    -3.4534e-01      0.699 (TRAH MIcro)
    7     dE    -2.571712e-01     2.857311e-02    -3.4536e-01      0.699 (TRAH MIcro)
    7     dE    -2.572005e-01     2.836156e-02    -3.4536e-01      0.700 (TRAH MIcro)
    7     dE    -2.572062e-01     2.808926e-02    -3.4536e-01      0.700 (TRAH MIcro)
    7     dE    -2.572042e-01     3.099577e-02    -3.4537e-01      0.700 (TRAH MIcro)
    7     dE    -2.572048e-01     3.118756e-02    -3.4537e-01      0.700 (TRAH MIcro)
    7     dE    -2.572073e-01     3.116083e-02    -3.4537e-01      0.700 (TRAH MIcro)
    7     dE    -2.572332e-01     3.563882e-02    -3.4539e-01      0.700 (TRAH MIcro)
    8       -917.534250394113     2.011956e-01                     1.194 (TRAH MAcro)   No
    8     dE    -2.550131e-03     2.898372e-01    -5.0970e-03      0.025 (TRAH MIcro)
    8     dE    -5.153431e-03     4.479492e-02    -1.0256e-02      0.070 (TRAH MIcro)
    8     dE    -5.289372e-03     2.579944e-02    -1.0521e-02      0.074 (TRAH MIcro)
    8     dE    -5.310354e-03     1.054125e-02    -1.0561e-02      0.075 (TRAH MIcro)
    8     dE    -5.315065e-03     2.585582e-03    -1.0569e-02      0.076 (TRAH MIcro)
    9       -917.540521441660     6.752462e-03                     1.433 (TRAH MAcro)   No
    9     dE    -2.607655e-06     1.379193e-02    -5.2153e-06      0.001 (TRAH MIcro)
    9     dE    -5.973962e-06     1.747628e-03    -1.1948e-05      0.002 (TRAH MIcro)
    9     dE    -6.180971e-06     1.115009e-03    -1.2362e-05      0.002 (TRAH MIcro)
    9     dE    -6.224814e-06     3.539918e-04    -1.2450e-05      0.002 (TRAH MIcro)
   10       -917.540522768096     1.327089e-03                     1.003 (TRAH MAcro)   No
   10     dE    -1.355763e-07     2.796895e-03    -2.7116e-07      0.000 (TRAH MIcro)
   10     dE    -2.578404e-07     3.138625e-04    -5.1568e-07      0.000 (TRAH MIcro)
   10     dE    -2.596478e-07     2.287187e-04    -5.1930e-07      0.000 (TRAH MIcro)
   10     dE    -2.603168e-07     7.763569e-05    -5.2063e-07      0.000 (TRAH MIcro)
   11       -917.540523859310     5.603115e-04                           (NR   MAcro)
   11     dE    -4.855716e-08     1.210192e-04                           (NR   MIcro)
   11     dE    -4.915762e-08     6.753896e-05                           (NR   MIcro)
   11     dE    -4.929625e-08     3.519840e-05                           (NR   MIcro)
   11     dE    -4.934099e-08     9.784375e-06                           (NR   MIcro)
   11     dE    -4.934338e-08     4.733396e-06                           (NR   MIcro)
   12       -917.540523449831     2.547386e-04                           (NR   MAcro)
   12     dE    -1.014381e-08     4.376367e-05                           (NR   MIcro)
   12     dE    -1.021506e-08     1.081298e-05                           (NR   MIcro)
   12     dE    -1.021888e-08     5.054038e-06                           (NR   MIcro)
   12     dE    -1.021933e-08     2.236968e-06                           (NR   MIcro)
   13       -917.540523646981     1.180630e-04                           (NR   MAcro)
   13     dE    -2.176535e-09     2.066687e-05                           (NR   MIcro)
   13     dE    -2.189193e-09     1.079970e-05                           (NR   MIcro)
   13     dE    -2.193902e-09     2.813717e-06                           (NR   MIcro)
   14       -917.540523557286     5.579141e-05                           (NR   MAcro)
   14     dE    -4.871229e-10     9.877925e-06                           (NR   MIcro)
   14     dE    -4.901611e-10     5.421394e-06                           (NR   MIcro)
   14     dE    -4.913150e-10     1.689474e-06                           (NR   MIcro)
   15       -917.540523605869     2.596754e-05                           (NR   MAcro)

               *****************************************************
               *                     SUCCESS                       *
               *           SCF CONVERGED AFTER 181 CYCLES          *
               *****************************************************

Old exchange energy                            =    -25.305641445 Eh
New exchange energy                            =    -25.305678819 Eh
Exchange energy change after final integration =     -0.000037374 Eh
Total energy after final integration           =   -917.540560980 Eh
Final COS-X integration done in                =    22.630 sec

----------------
TOTAL SCF ENERGY
----------------

Total Energy       :         -917.54056098 Eh          -24967.54799 eV

Components:
Nuclear Repulsion  :         1723.59863899 Eh           46901.50339 eV
Electronic Energy  :        -2641.13919997 Eh          -71869.05138 eV
One Electron Energy:        -4661.93222006 Eh         -126857.62502 eV
Two Electron Energy:         2020.79302009 Eh           54988.57364 eV
Max COSX asymmetry :            0.00039100 Eh               0.01064 eV

Virial components:
Potential Energy   :        -1831.80071174 Eh          -49845.83148 eV
Kinetic Energy     :          914.26015076 Eh           24878.28349 eV
Virial Ratio       :            2.00358805


DFT components:
N(Alpha)           :       75.000175108478 electrons
N(Beta)            :       75.000175108478 electrons
N(Total)           :      150.000350216957 electrons
E(X)               :     -100.656993043779 Eh       
E(C)               :       -6.063388851110 Eh       
E(XC)              :     -106.720381894889 Eh       
DFET-embed. en.    :        0.000000000000 Eh       

---------------
SCF CONVERGENCE
---------------

  Last Energy change         ...   -4.8584e-08  Tolerance :   1.0000e-06
  Last Orbital Gradient      ...    2.5968e-05  Tolerance :   5.0000e-05
  Last Orbital Rotation      ...    1.9897e-05

             **** THE GBW FILE WAS UPDATED (loss_eight_seven_eleven_twelve_three_four_spectra.gbw) ****
             **** DENSITY loss_eight_seven_eleven_twelve_three_four_spectra.scfp WAS UPDATED ****
             **** ENERGY FILE WAS UPDATED (loss_eight_seven_eleven_twelve_three_four_spectra.en.tmp) ****
             **** THE GBW FILE WAS UPDATED (loss_eight_seven_eleven_twelve_three_four_spectra.gbw) ****
             **** DENSITY loss_eight_seven_eleven_twelve_three_four_spectra.scfp WAS UPDATED ****
----------------
ORBITAL ENERGIES
----------------

  NO   OCC          E(Eh)            E(eV) 
   0   2.0000     -10.227165      -278.2953 
   1   2.0000     -10.227163      -278.2952 
   2   2.0000     -10.227155      -278.2950 
   3   2.0000     -10.227151      -278.2949 
   4   2.0000     -10.227138      -278.2946 
   5   2.0000     -10.227131      -278.2944 
   6   2.0000     -10.217771      -278.0397 
   7   2.0000     -10.217589      -278.0347 
   8   2.0000     -10.217586      -278.0347 
   9   2.0000     -10.217161      -278.0231 
  10   2.0000     -10.217158      -278.0230 
  11   2.0000     -10.216949      -278.0173 
  12   2.0000     -10.198545      -277.5165 
  13   2.0000     -10.198540      -277.5164 
  14   2.0000     -10.198538      -277.5163 
  15   2.0000     -10.197910      -277.4992 
  16   2.0000     -10.197905      -277.4991 
  17   2.0000     -10.197904      -277.4991 
  18   2.0000     -10.191780      -277.3324 
  19   2.0000     -10.191776      -277.3323 
  20   2.0000     -10.191771      -277.3322 
  21   2.0000     -10.189780      -277.2780 
  22   2.0000     -10.189777      -277.2779 
  23   2.0000     -10.189774      -277.2779 
  24   2.0000      -0.932568       -25.3765 
  25   2.0000      -0.897837       -24.4314 
  26   2.0000      -0.897829       -24.4312 
  27   2.0000      -0.850936       -23.1551 
  28   2.0000      -0.850929       -23.1549 
  29   2.0000      -0.827966       -22.5301 
  30   2.0000      -0.805012       -21.9055 
  31   2.0000      -0.784521       -21.3479 
  32   2.0000      -0.762575       -20.7507 
  33   2.0000      -0.762570       -20.7506 
  34   2.0000      -0.735277       -20.0079 
  35   2.0000      -0.735266       -20.0076 
  36   2.0000      -0.663134       -18.0448 
  37   2.0000      -0.663127       -18.0446 
  38   2.0000      -0.642282       -17.4774 
  39   2.0000      -0.635162       -17.2836 
  40   2.0000      -0.635150       -17.2833 
  41   2.0000      -0.594574       -16.1792 
  42   2.0000      -0.556183       -15.1345 
  43   2.0000      -0.550400       -14.9771 
  44   2.0000      -0.550384       -14.9767 
  45   2.0000      -0.530080       -14.4242 
  46   2.0000      -0.521140       -14.1809 
  47   2.0000      -0.496610       -13.5134 
  48   2.0000      -0.496599       -13.5131 
  49   2.0000      -0.474810       -12.9202 
  50   2.0000      -0.474805       -12.9201 
  51   2.0000      -0.456637       -12.4257 
  52   2.0000      -0.456624       -12.4254 
  53   2.0000      -0.451844       -12.2953 
  54   2.0000      -0.451152       -12.2765 
  55   2.0000      -0.412570       -11.2266 
  56   2.0000      -0.412564       -11.2264 
  57   2.0000      -0.411697       -11.2028 
  58   2.0000      -0.411692       -11.2027 
  59   2.0000      -0.405413       -11.0319 
  60   2.0000      -0.402509       -10.9528 
  61   2.0000      -0.373448       -10.1620 
  62   2.0000      -0.373439       -10.1618 
  63   2.0000      -0.359374        -9.7791 
  64   2.0000      -0.359368        -9.7789 
  65   2.0000      -0.341998        -9.3062 
  66   2.0000      -0.300417        -8.1748 
  67   2.0000      -0.293012        -7.9733 
  68   2.0000      -0.286699        -7.8015 
  69   2.0000      -0.283989        -7.7277 
  70   2.0000      -0.283988        -7.7277 
  71   2.0000      -0.275189        -7.4883 
  72   2.0000      -0.275183        -7.4881 
  73   2.0000      -0.229534        -6.2459 
  74   2.0000      -0.229530        -6.2458 
  75   0.0000      -0.092130        -2.5070 
  76   0.0000      -0.092120        -2.5067 
  77   0.0000      -0.091572        -2.4918 
  78   0.0000      -0.080320        -2.1856 
  79   0.0000      -0.080314        -2.1855 
  80   0.0000      -0.032539        -0.8854 
  81   0.0000      -0.032531        -0.8852 
  82   0.0000      -0.026591        -0.7236 
  83   0.0000      -0.000000        -0.0000 
  84   0.0000      -0.000000        -0.0000 
  85   0.0000      -0.000000        -0.0000 
  86   0.0000       0.000000         0.0000 
  87   0.0000       0.005167         0.1406 
  88   0.0000       0.005300         0.1442 
  89   0.0000       0.012041         0.3277 
  90   0.0000       0.012442         0.3386 
  91   0.0000       0.025209         0.6860 
  92   0.0000       0.029648         0.8068 
  93   0.0000       0.032807         0.8927 
  94   0.0000       0.042414         1.1541 
  95   0.0000       0.045865         1.2480 
  96   0.0000       0.047712         1.2983 
  97   0.0000       0.047946         1.3047 
  98   0.0000       0.047957         1.3050 
  99   0.0000       0.050575         1.3762 
 100   0.0000       0.057380         1.5614 
 101   0.0000       0.058765         1.5991 
 102   0.0000       0.060378         1.6430 
 103   0.0000       0.065646         1.7863 
 104   0.0000       0.073966         2.0127 
 105   0.0000       0.074002         2.0137 
 106   0.0000       0.088674         2.4129 
 107   0.0000       0.088688         2.4133 
 108   0.0000       0.090885         2.4731 
 109   0.0000       0.093460         2.5432 
 110   0.0000       0.097537         2.6541 
 111   0.0000       0.098106         2.6696 
 112   0.0000       0.101175         2.7531 
 113   0.0000       0.106321         2.8931 
 114   0.0000       0.109908         2.9907 
 115   0.0000       0.116747         3.1769 
 116   0.0000       0.121266         3.2998 
 117   0.0000       0.122074         3.3218 
 118   0.0000       0.127883         3.4799 
 119   0.0000       0.134718         3.6659 
 120   0.0000       0.134727         3.6661 
 121   0.0000       0.137293         3.7359 
 122   0.0000       0.139618         3.7992 
 123   0.0000       0.142644         3.8815 
 124   0.0000       0.143157         3.8955 
 125   0.0000       0.143207         3.8969 
 126   0.0000       0.147258         4.0071 
 127   0.0000       0.149424         4.0660 
 128   0.0000       0.155579         4.2335 
 129   0.0000       0.163705         4.4546 
 130   0.0000       0.164119         4.4659 
 131   0.0000       0.169903         4.6233 
 132   0.0000       0.170713         4.6453 
 133   0.0000       0.180498         4.9116 
 134   0.0000       0.180523         4.9123 
 135   0.0000       0.189364         5.1528 
 136   0.0000       0.189368         5.1530 
 137   0.0000       0.192365         5.2345 
 138   0.0000       0.193088         5.2542 
 139   0.0000       0.195355         5.3159 
 140   0.0000       0.198791         5.4094 
 141   0.0000       0.199990         5.4420 
 142   0.0000       0.200618         5.4591 
 143   0.0000       0.200647         5.4599 
 144   0.0000       0.202406         5.5078 
 145   0.0000       0.204956         5.5771 
 146   0.0000       0.215172         5.8551 
 147   0.0000       0.215765         5.8713 
 148   0.0000       0.219526         5.9736 
 149   0.0000       0.224058         6.0969 
 150   0.0000       0.226299         6.1579 
 151   0.0000       0.229366         6.2414 
 152   0.0000       0.231718         6.3054 
 153   0.0000       0.234506         6.3812 
 154   0.0000       0.235986         6.4215 
 155   0.0000       0.237791         6.4706 
 156   0.0000       0.238633         6.4935 
 157   0.0000       0.241375         6.5682 
 158   0.0000       0.242464         6.5978 
 159   0.0000       0.244853         6.6628 
 160   0.0000       0.254043         6.9129 
 161   0.0000       0.255688         6.9576 
 162   0.0000       0.260649         7.0926 
 163   0.0000       0.260653         7.0927 
 164   0.0000       0.260750         7.0954 
 165   0.0000       0.266882         7.2622 
 166   0.0000       0.269424         7.3314 
 167   0.0000       0.273385         7.4392 
 168   0.0000       0.279105         7.5948 
 169   0.0000       0.279910         7.6168 
 170   0.0000       0.282794         7.6952 
 171   0.0000       0.284486         7.7412 
 172   0.0000       0.296613         8.0713 
 173   0.0000       0.298228         8.1152 
 174   0.0000       0.300015         8.1638 
 175   0.0000       0.304829         8.2948 
 176   0.0000       0.304852         8.2955 
 177   0.0000       0.314454         8.5567 
 178   0.0000       0.315350         8.5811 
 179   0.0000       0.320556         8.7228 
 180   0.0000       0.323466         8.8020 
 181   0.0000       0.324560         8.8317 
 182   0.0000       0.344383         9.3712 
 183   0.0000       0.345133         9.3916 
 184   0.0000       0.349991         9.5237 
 185   0.0000       0.351759         9.5718 
 186   0.0000       0.357000         9.7145 
 187   0.0000       0.362684         9.8691 
 188   0.0000       0.368809        10.0358 
 189   0.0000       0.374538        10.1917 
 190   0.0000       0.379566        10.3285 
 191   0.0000       0.387145        10.5347 
 192   0.0000       0.394326        10.7302 
 193   0.0000       0.396738        10.7958 
 194   0.0000       0.406572        11.0634 
 195   0.0000       0.411385        11.1944 
 196   0.0000       0.415235        11.2991 
 197   0.0000       0.425562        11.5801 
 198   0.0000       0.431418        11.7395 
 199   0.0000       0.433864        11.8060 
 200   0.0000       0.445388        12.1196 
 201   0.0000       0.448835        12.2134 
 202   0.0000       0.460850        12.5404 
 203   0.0000       0.469503        12.7758 
 204   0.0000       0.476204        12.9582 
 205   0.0000       0.482745        13.1362 
 206   0.0000       0.490790        13.3551 
 207   0.0000       0.493362        13.4251 
 208   0.0000       0.504167        13.7191 
 209   0.0000       0.507226        13.8023 
 210   0.0000       0.514121        13.9900 
 211   0.0000       0.517107        14.0712 
 212   0.0000       0.521117        14.1803 
 213   0.0000       0.525931        14.3113 
 214   0.0000       0.525933        14.3114 
 215   0.0000       0.527612        14.3571 
 216   0.0000       0.532903        14.5010 
 217   0.0000       0.535917        14.5830 
 218   0.0000       0.547773        14.9056 
 219   0.0000       0.549771        14.9600 
 220   0.0000       0.549784        14.9604 
 221   0.0000       0.556329        15.1385 
 222   0.0000       0.556902        15.1541 
 223   0.0000       0.558905        15.2086 
 224   0.0000       0.566121        15.4049 
 225   0.0000       0.579541        15.7701 
 226   0.0000       0.585501        15.9323 
 227   0.0000       0.600451        16.3391 
 228   0.0000       0.601014        16.3544 
 229   0.0000       0.601253        16.3609 
 230   0.0000       0.604056        16.4372 
 231   0.0000       0.609504        16.5854 
 232   0.0000       0.610477        16.6119 
 233   0.0000       0.612987        16.6802 
 234   0.0000       0.613252        16.6874 
 235   0.0000       0.613265        16.6878 
 236   0.0000       0.614631        16.7250 
 237   0.0000       0.621111        16.9013 
 238   0.0000       0.625361        17.0169 
 239   0.0000       0.627895        17.0859 
 240   0.0000       0.627908        17.0863 
 241   0.0000       0.629810        17.1380 
 242   0.0000       0.638443        17.3729 
 243   0.0000       0.641881        17.4665 
 244   0.0000       0.652362        17.7517 
 245   0.0000       0.657837        17.9007 
 246   0.0000       0.660262        17.9667 
 247   0.0000       0.665705        18.1148 
 248   0.0000       0.668080        18.1794 
 249   0.0000       0.668096        18.1798 
 250   0.0000       0.676139        18.3987 
 251   0.0000       0.680447        18.5159 
 252   0.0000       0.681340        18.5402 
 253   0.0000       0.683732        18.6053 
 254   0.0000       0.683734        18.6053 
 255   0.0000       0.708848        19.2887 
 256   0.0000       0.713784        19.4230 
 257   0.0000       0.718768        19.5587 
 258   0.0000       0.720817        19.6144 
 259   0.0000       0.723250        19.6806 
 260   0.0000       0.726925        19.7806 
 261   0.0000       0.729277        19.8446 
 262   0.0000       0.729286        19.8449 
 263   0.0000       0.729517        19.8512 
 264   0.0000       0.766010        20.8442 
 265   0.0000       0.774315        21.0702 
 266   0.0000       0.774327        21.0705 
 267   0.0000       0.774538        21.0763 
 268   0.0000       0.779134        21.2013 
 269   0.0000       0.779997        21.2248 
 270   0.0000       0.783314        21.3151 
 271   0.0000       0.793490        21.5920 
 272   0.0000       0.797537        21.7021 
 273   0.0000       0.819184        22.2911 
 274   0.0000       0.833153        22.6712 
 275   0.0000       0.835794        22.7431 
 276   0.0000       0.865868        23.5615 
 277   0.0000       0.886055        24.1108 
 278   0.0000       0.895583        24.3700 
 279   0.0000       0.903540        24.5866 
 280   0.0000       0.904117        24.6023 
 281   0.0000       0.908807        24.7299 
 282   0.0000       0.919283        25.0150 
 283   0.0000       0.919837        25.0300 
 284   0.0000       0.922406        25.0999 
 285   0.0000       0.927335        25.2341 
 286   0.0000       0.936765        25.4907 
 287   0.0000       0.939305        25.5598 
 288   0.0000       0.951190        25.8832 
 289   0.0000       0.951924        25.9032 
 290   0.0000       0.964579        26.2475 
 291   0.0000       0.968551        26.3556 
 292   0.0000       0.977448        26.5977 
 293   0.0000       0.981828        26.7169 
 294   0.0000       0.981866        26.7179 
 295   0.0000       0.981881        26.7183 
 296   0.0000       0.986115        26.8336 
 297   0.0000       0.991284        26.9742 
 298   0.0000       0.994620        27.0650 
 299   0.0000       0.994627        27.0652 
 300   0.0000       0.996466        27.1152 
 301   0.0000       1.024694        27.8834 
 302   0.0000       1.027808        27.9681 
 303   0.0000       1.029955        28.0265 
 304   0.0000       1.033026        28.1101 
 305   0.0000       1.035901        28.1883 
 306   0.0000       1.042462        28.3668 
 307   0.0000       1.052628        28.6435 
 308   0.0000       1.052648        28.6440 
 309   0.0000       1.053740        28.6737 
 310   0.0000       1.063897        28.9501 
 311   0.0000       1.068224        29.0678 
 312   0.0000       1.080307        29.3966 
 313   0.0000       1.080315        29.3969 
 314   0.0000       1.083393        29.4806 
 315   0.0000       1.098560        29.8933 
 316   0.0000       1.108754        30.1707 
 317   0.0000       1.149663        31.2839 
 318   0.0000       1.157858        31.5069 
 319   0.0000       1.159167        31.5425 
 320   0.0000       1.172923        31.9169 
 321   0.0000       1.181820        32.1590 
 322   0.0000       1.188404        32.3381 
 323   0.0000       1.194481        32.5035 
 324   0.0000       1.199071        32.6284 
 325   0.0000       1.199087        32.6288 
 326   0.0000       1.200522        32.6679 
 327   0.0000       1.223597        33.2958 
 328   0.0000       1.244424        33.8625 
 329   0.0000       1.244432        33.8627 
 330   0.0000       1.265352        34.4320 
 331   0.0000       1.270321        34.5672 
 332   0.0000       1.274600        34.6836 
 333   0.0000       1.289398        35.0863 
 334   0.0000       1.289715        35.0949 
 335   0.0000       1.338234        36.4152 
 336   0.0000       1.343613        36.5616 
 337   0.0000       1.365722        37.1632 
 338   0.0000       1.370302        37.2878 
 339   0.0000       1.409763        38.3616 
 340   0.0000       1.411256        38.4022 
 341   0.0000       1.429625        38.9021 
 342   0.0000       1.433149        38.9980 
 343   0.0000       1.461262        39.7630 
 344   0.0000       1.461270        39.7632 
 345   0.0000       1.465402        39.8756 
 346   0.0000       1.466521        39.9061 
 347   0.0000       1.473675        40.1007 
 348   0.0000       1.476330        40.1730 
 349   0.0000       1.486676        40.4545 
 350   0.0000       1.486686        40.4548 
 351   0.0000       1.493662        40.6446 
 352   0.0000       1.497886        40.7596 
 353   0.0000       1.498168        40.7672 
 354   0.0000       1.508823        41.0572 
 355   0.0000       1.555219        42.3196 
 356   0.0000       1.565589        42.6018 
 357   0.0000       1.565681        42.6043 
 358   0.0000       1.568648        42.6851 
 359   0.0000       1.568682        42.6860 
 360   0.0000       1.580909        43.0187 
 361   0.0000       1.580969        43.0204 
 362   0.0000       1.595827        43.4247 
 363   0.0000       1.601704        43.5846 
 364   0.0000       1.644355        44.7452 
 365   0.0000       1.644553        44.7506 
 366   0.0000       1.646019        44.7904 
 367   0.0000       1.677187        45.6386 
 368   0.0000       1.677237        45.6399 
 369   0.0000       1.699772        46.2531 
 370   0.0000       1.704656        46.3860 
 371   0.0000       1.717813        46.7441 
 372   0.0000       1.717825        46.7444 
 373   0.0000       1.720672        46.8219 
 374   0.0000       1.721430        46.8425 
 375   0.0000       1.727509        47.0079 
 376   0.0000       1.747975        47.5648 
 377   0.0000       1.748002        47.5656 
 378   0.0000       1.810774        49.2737 
 379   0.0000       1.811325        49.2886 
 380   0.0000       1.813078        49.3364 
 381   0.0000       1.813101        49.3370 
 382   0.0000       1.834051        49.9071 
 383   0.0000       1.864361        50.7318 
 384   0.0000       1.868562        50.8462 
 385   0.0000       1.868687        50.8496 
 386   0.0000       1.878035        51.1039 
 387   0.0000       1.878867        51.1266 
 388   0.0000       1.878881        51.1269 
 389   0.0000       1.888631        51.3922 
 390   0.0000       1.889579        51.4181 
 391   0.0000       1.911309        52.0094 
 392   0.0000       1.911336        52.0101 
 393   0.0000       1.928433        52.4753 
 394   0.0000       1.929377        52.5010 
 395   0.0000       1.956281        53.2331 
 396   0.0000       1.958877        53.3038 
 397   0.0000       1.959040        53.3082 
 398   0.0000       1.975606        53.7590 
 399   0.0000       1.976579        53.7855 
 400   0.0000       1.983908        53.9849 
 401   0.0000       1.985819        54.0369 
 402   0.0000       1.999948        54.4214 
 403   0.0000       2.000875        54.4466 
 404   0.0000       2.033909        55.3455 
 405   0.0000       2.042673        55.5840 
 406   0.0000       2.042798        55.5873 
 407   0.0000       2.042800        55.5874 
 408   0.0000       2.058487        56.0143 
 409   0.0000       2.058824        56.0234 
 410   0.0000       2.060546        56.0703 
 411   0.0000       2.067809        56.2679 
 412   0.0000       2.087694        56.8091 
 413   0.0000       2.088039        56.8184 
 414   0.0000       2.160329        58.7856 
 415   0.0000       2.165406        58.9237 
 416   0.0000       2.165453        58.9250 
 417   0.0000       2.165884        58.9367 
 418   0.0000       2.166169        58.9444 
 419   0.0000       2.219140        60.3859 
 420   0.0000       2.219398        60.3929 
 421   0.0000       2.233556        60.7781 
 422   0.0000       2.275021        61.9065 
 423   0.0000       2.294608        62.4395 
[...]
 762   89730.4    111.4      0.01463  -0.01690  -0.14438   0.00109
 763   89740.8    111.4      0.00705   0.13843  -0.01179  -0.00001
 764   89756.4    111.4      0.00510   0.00052   0.00001  -0.02067
 765   89828.8    111.3     -0.00245  -0.00021   0.00004   0.00585
 766   89990.4    111.1     -0.01065  -0.02046  -0.02348   0.00008
 767   90011.4    111.1      0.07058   0.00037   0.00036   0.09529
 768   90020.6    111.1     -2.71293   0.12360  -0.06972   0.00075
 769   90021.0    111.1      2.73439   0.01093  -0.00752  -0.00522
 770   90038.5    111.1      0.00168  -0.11231  -0.17984  -0.00009
 771   90050.2    111.0     -0.12956   0.00127   0.00052  -0.09979
 772   90067.6    111.0      0.03308   0.14093  -0.09333   0.00004
 773   90122.9    111.0      0.02407   0.00005  -0.00020   0.09449
 774   90157.8    110.9      0.01417  -0.00001   0.00012   0.38086
 775   90212.2    110.8      0.00156  -0.01271   0.01272  -0.00020
 776   90261.1    110.8     -0.00094  -0.00003   0.00003   0.01165
 777   90280.4    110.8      0.01160  -0.00006  -0.00051   0.00723
 778   90282.1    110.8     -0.01658  -0.00413  -0.02356  -0.00022
 779   90369.0    110.7      0.00046   0.00001   0.00009   0.02034
 780   90451.5    110.6     -0.00082   0.00003  -0.00002   0.01423
 781   90546.0    110.4     -0.00220  -0.01712   0.02757   0.00005
 782   90637.0    110.3      0.00253  -0.00014  -0.00006  -0.00350
 783   90680.6    110.3     -0.00374  -0.00348   0.08859   0.00008
 784   90713.9    110.2      0.00767  -0.09516  -0.02539   0.00011
 785   90783.7    110.2      0.01108   0.00019  -0.00006   0.25154
 786   90847.2    110.1     -0.01050   0.07152  -0.18840  -0.00014
 787   90861.7    110.1     -0.92957  -0.01313  -0.00517  -0.00487
 788   90862.9    110.1      0.89807  -0.20055  -0.07446   0.00055
 789   90877.7    110.0      0.03999  -0.00100   0.00004  -0.03691
 790   90898.3    110.0      0.02096  -0.00104   0.00028   0.03690
 791   90904.3    110.0      0.00291  -0.10513   0.04758  -0.00024
 792   90928.3    110.0     -0.03382   0.00041   0.00005  -0.05167
 793   90939.4    110.0      0.04021   0.00076   0.00088   0.05301
 794   90953.4    109.9     -0.01274  -0.12054  -0.16299   0.00035
 795   90963.3    109.9     -0.02905   0.12787  -0.14627   0.00004
 796   91010.8    109.9     -0.00076   0.00025  -0.00000  -0.02748
 797   91076.4    109.8      0.00369  -0.00000  -0.00017  -0.07537
 798   91110.0    109.8      0.01706  -0.00003  -0.00007  -0.07667
 799   91170.1    109.7      0.01081   0.00008   0.00006   0.39748
 800   91190.5    109.7     -0.01919  -0.06481  -0.03721  -0.00018
 801   91236.1    109.6      0.04014   0.00044   0.00011  -0.02894
 802   91248.3    109.6     -0.01184   0.03940   0.02030   0.00001
 803   91357.0    109.5      0.00390  -0.00017   0.00008   0.03578
 804   91367.2    109.4     -0.00552   0.04181  -0.02399  -0.00026
 805   91448.5    109.4     -0.00306   0.00006   0.00006  -0.02555
 806   91497.2    109.3     -0.00151  -0.00001  -0.00027   0.00080
 807   91501.5    109.3      0.00304  -0.00095   0.05375   0.00011
 808   91513.1    109.3      0.00931  -0.00009  -0.00061  -0.00284
 809   91584.2    109.2     -0.00278   0.01813   0.02309   0.00002
 810   91689.4    109.1     -0.00160  -0.00543   0.00995  -0.00012
 811   91770.6    109.0     -0.00029  -0.00014   0.00003   0.00007
 812   91808.8    108.9      0.00045  -0.00003  -0.00000   0.11804
 813   91992.2    108.7      0.01270   0.00085   0.00013   0.03149
 814   91999.6    108.7     -0.00483   0.09684   0.01887  -0.00005
 815   92051.6    108.6      0.00786   0.02113  -0.04082   0.00165
 816   92056.2    108.6     -0.02099   0.00015  -0.00069  -0.16705
 817   92098.0    108.6     -0.04864  -0.00039  -0.00040  -0.03174
 818   92113.6    108.6      0.03654  -0.05438  -0.13256   0.00046
 819   92266.7    108.4      0.02792   0.00006  -0.00019  -0.10975
 820   92298.0    108.3     -0.02442   0.02287  -0.10710   0.00039
 821   92303.5    108.3     -0.00636   0.10831   0.01392   0.00056
 822   92365.0    108.3     -0.01043   0.00011   0.00001   0.07088
 823   92387.1    108.2      0.00996  -0.00033   0.00024   0.32882
 824   92426.9    108.2      0.00107  -0.10809   0.07524  -0.00063
 825   92496.9    108.1     -0.02003  -0.00000  -0.00004  -0.12572
 826   92508.0    108.1      0.01692   0.00183  -0.00109   0.00105
 827   92573.8    108.0      0.00996  -0.00655   0.00356  -0.00037
 828   92579.4    108.0     -0.00307   0.00017   0.00013  -0.36786
 829   92662.2    107.9     -0.03313   0.00025   0.00017  -0.26100
 830   92669.1    107.9      0.00635  -0.00010  -0.00330   0.00036
 831   92772.4    107.8      0.01372  -0.21506  -0.03049  -0.00006
 832   92779.1    107.8      0.02120  -0.03738   0.20246  -0.00028
 833   92802.9    107.8     -0.00997  -0.00845  -0.02343  -0.00064
 834   92820.6    107.7     -0.00263   0.00003   0.00038   0.13073
 835   92847.3    107.7      1.36778  -0.01547   0.00833  -0.10170
 836   92847.9    107.7     -1.36319   0.02742  -0.01588  -0.05756
 837   92910.5    107.6     -0.01021   0.00008  -0.00016  -0.13537
 838   92971.7    107.6      0.00043  -0.02466   0.02804  -0.00022
 839   92976.5    107.6     -0.00074  -0.02145   0.01366  -0.00007
 840   93087.4    107.4     -0.03002  -0.03897  -0.02631   0.00029
 841   93104.0    107.4      0.00811   0.00002   0.00010  -0.01904
 842   93119.4    107.4      0.03045  -0.03274   0.08922  -0.00052
 843   93175.0    107.3      0.11311  -0.14384   0.07039  -0.00102
 844   93194.5    107.3     -0.44575   0.00272  -0.00227  -0.09179
 845   93195.5    107.3      0.30740   0.01540  -0.01781   0.00820
 846   93217.2    107.3      0.01229  -0.00038   0.00016  -0.01504
 847   93253.7    107.2     -0.00936  -0.05590  -0.16871  -0.00009
 848   93334.5    107.1     -0.04367  -0.00003   0.00008   0.40887
 849   93387.4    107.1     -0.01721  -0.02004  -0.00096  -0.00047
 850   93465.8    107.0      0.02563   0.00049  -0.00032  -0.06446
 851   93487.9    107.0     -0.01725   0.10488  -0.06365   0.00021
 852   93516.2    106.9     -0.16563   0.00098  -0.00020  -0.18600
 853   93525.8    106.9      0.08925  -0.03750   0.06119  -0.00240
 854   93557.7    106.9      1.15397   0.09374   0.21771   0.00118
 855   93561.8    106.9     -1.08350   0.00320   0.00629  -0.03182
 856   93586.6    106.9      0.03899   0.06397  -0.04093   0.00049
 857   93593.3    106.8      0.01421  -0.13850  -0.03514  -0.00039
 858   93632.3    106.8     -0.00128   0.00044  -0.00061  -0.01500
 859   93639.7    106.8      0.02536  -0.22135   0.11736  -0.00009
 860   93684.1    106.7     -0.55271  -0.00309   0.00110  -0.08111
 861   93685.3    106.7      0.46507  -0.11288   0.06084   0.00179
 862   93709.3    106.7      0.09413   0.12037   0.07096  -0.00041
 863   93733.2    106.7     -0.01246  -0.00035  -0.00038  -0.02596
 864   93776.3    106.6      0.01975  -0.03336  -0.12264  -0.00018
 865   93791.3    106.6      0.01555  -0.00005  -0.00005  -0.15743
 866   93838.0    106.6     -0.00250   0.00008  -0.00005  -0.15954
 867   93912.4    106.5     -0.01003   0.08225   0.18582  -0.00008
 868   93979.1    106.4      0.04232   0.03370   0.02107  -0.00101
 869   93980.4    106.4     -0.03697  -0.00101  -0.00053  -0.03662
 870   93992.1    106.4     -0.00101   0.00005  -0.00008  -0.00916
 871   94131.3    106.2     -0.00354  -0.01855   0.00180   0.00009
 872   94155.3    106.2      0.00274  -0.00166   0.00031  -0.00001
 873   94209.9    106.1      0.01982  -0.00005   0.00028  -0.03515
 874   94243.8    106.1      0.01757   0.06959   0.05609  -0.00009
 875   94273.8    106.1      0.04367   0.00042   0.00038  -0.07291
 876   94283.2    106.1      0.02804   0.00783  -0.00924   0.00124
 877   94319.8    106.0      0.02496   0.00162  -0.00125  -0.21877
 878   94339.7    106.0      0.47383  -0.00187   0.00191   0.16104
 879   94349.7    106.0     -0.48187  -0.25746   0.36283  -0.00207
 880   94364.7    106.0     -0.07428  -0.36971  -0.23597  -0.00063
 881   94415.5    105.9     -0.02268  -0.00016  -0.00092   0.15357
 882   94432.1    105.9      0.00313  -0.07313  -0.10469  -0.00071
 883   94472.8    105.9      0.00808  -0.04876   0.00557   0.00036
 884   94676.6    105.6     -0.25188  -0.00016  -0.00031  -1.07487
 885   94746.6    105.5      0.00410  -0.29359  -0.21307   0.00137
 886   94760.8    105.5     -0.00708   0.22434  -0.27345  -0.00197
 887   94795.5    105.5      0.00803   0.00047  -0.00073  -0.03792
 888   94799.4    105.5      0.02270  -0.00099  -0.00093   0.29179
 889   94806.7    105.5     -0.04059  -0.17937  -0.15458  -0.00197
 890   94813.9    105.5      0.01392   0.18970  -0.19620   0.00142
 891   94869.2    105.4      0.00711  -0.00017  -0.00021   0.11989
 892   94923.3    105.3     -0.02135   0.16085   0.03104   0.00025
 893   94926.7    105.3      0.01219  -0.00026   0.00006   0.11345
 894   95016.8    105.2      0.07042   0.10211  -0.18519  -0.00266
 895   95029.4    105.2      0.07319  -0.00048   0.00100  -0.57180
 896   95093.9    105.2     -0.05146   0.03732  -0.14957  -0.00045
 897   95095.9    105.2      0.00394  -0.06284  -0.16492  -0.00132
 898   95096.3    105.2      0.01082  -0.22396   0.06292  -0.00099
 899   95108.7    105.1      0.11558   0.00039   0.00067  -0.39189
 900   95139.0    105.1      0.00160  -0.02269  -0.16746  -0.00020
 901   95146.3    105.1     -0.00935   0.00007   0.00039  -0.02883
 902   95159.9    105.1      0.01301  -0.00025  -0.00043  -0.00839
 903   95172.2    105.1     -0.03334  -0.00026  -0.00024   0.19322
 904   95193.9    105.0      0.00411   0.00009   0.00013  -0.04994
 905   95201.1    105.0     -0.00062  -0.02164  -0.03082  -0.00014
 906   95245.5    105.0     -0.00168   0.00004  -0.00008  -0.25728
 907   95311.7    104.9      0.00037  -0.00025   0.00014   0.10934
 908   95324.8    104.9     -0.01643  -0.12217  -0.04713  -0.00030
 909   95372.0    104.9      0.01866  -0.23073  -0.12560   0.00042
 910   95383.6    104.8      0.01192   0.07143  -0.36523   0.00022
 911   95414.1    104.8      0.01290  -0.19942   0.11758  -0.00090
 912   95449.5    104.8     -0.05952   0.00036  -0.00035  -0.34610
 913   95476.0    104.7      0.03734  -0.18854  -0.10959  -0.00040
 914   95481.8    104.7     -0.02243   0.00118   0.00097   0.04641
 915   95528.4    104.7      0.01053  -0.00009   0.00017  -0.21826
 916   95560.6    104.6      0.02596  -0.00008   0.00004   0.19297
 917   95571.5    104.6     -0.02827  -0.01684  -0.01246  -0.00096
 918   95572.1    104.6     -0.10572  -0.00004   0.00001  -0.28546
 919   95596.6    104.6      0.23529  -0.00438  -0.03203   0.00221
 920   95602.8    104.6     -0.07345   0.00012  -0.00040  -0.17143
 921   95658.1    104.5      0.00446  -0.03712   0.02947   0.00024
 922   95698.6    104.5      0.02547  -0.00728  -0.01260   0.00057
 923   95706.0    104.5     -0.03891   0.00004  -0.00005  -0.08302
 924   95723.4    104.5     -0.04383  -0.00013  -0.00004  -0.27324
 925   95759.2    104.4     -0.06666   0.00037   0.00018   0.08355
 926   95780.0    104.4      0.09890  -0.06821  -0.02717   0.00075
 927   95805.4    104.4      0.01883  -0.00027   0.00002   0.01442
 928   95818.8    104.4     -0.00844  -0.00751  -0.00808  -0.00041
 929   95829.8    104.4      1.07870  -0.00513  -0.00356   0.04463
 930   95831.3    104.4     -1.13748  -0.10470  -0.07516  -0.00242
 931   95843.7    104.3     -0.02034  -0.03610   0.10367   0.00008
 932   95867.0    104.3     -0.00652  -0.00262  -0.03551  -0.00021
 933   95913.5    104.3      0.04129  -0.18830   0.00882  -0.00011
 934   95925.2    104.2      0.05101   0.00044  -0.00018   0.07910
 935   95964.4    104.2     -0.01607  -0.00003   0.00012   0.22054
 936   95997.3    104.2     -0.52807   0.06662   0.04044  -0.00152
 937   95998.5    104.2      0.51102  -0.00364  -0.00356  -0.01475
 938   96004.0    104.2      0.00442   0.09648  -0.01751  -0.00061
 939   96039.3    104.1      0.00530   0.02880  -0.08668   0.00007
 940   96059.0    104.1      0.02987   0.16058  -0.20322  -0.00068
 941   96119.3    104.0      0.00188   0.01554  -0.02590   0.00102
 942   96133.9    104.0      0.00117  -0.05702   0.04848  -0.00012
 943   96147.5    104.0     -0.00076  -0.09054   0.07552   0.00014
 944   96181.0    104.0      0.00638   0.01475  -0.04910  -0.00106
 945   96198.5    104.0     -0.15278  -0.00016   0.00047  -0.61163
 946   96213.8    103.9     -0.00170  -0.00000   0.00010  -0.08176
 947   96237.6    103.9     -0.11252   0.15150   0.25848  -0.00323
 948   96238.0    103.9      0.12085   0.00660   0.01152   0.07783
 949   96297.2    103.8     -0.01269  -0.00010  -0.00005   0.26378
 950   96371.4    103.8      0.00572   0.10741   0.02900   0.00033
 951   96475.2    103.7      0.00204   0.08353   0.02758  -0.00007
 952   96485.1    103.6     -0.00929   0.03076  -0.00476   0.00037
 953   96500.1    103.6      0.00487  -0.04570   0.02847  -0.00005
 954   96518.2    103.6      0.04061  -0.15067  -0.02978  -0.00066
 955   96523.4    103.6      0.03111   0.03521  -0.07344  -0.00160
 956   96523.7    103.6     -0.03480   0.00023  -0.00195   0.06728
 957   96538.7    103.6     -0.00256  -0.01294   0.18901   0.00016
 958   96576.0    103.5     -0.00700   0.00018  -0.00009   0.07759
 959   96580.8    103.5      0.00113   0.06534   0.07025  -0.00004
 960   96600.6    103.5      0.01110   0.08536  -0.05933  -0.00043
 961   96620.7    103.5     -0.02568   0.00011  -0.00017   0.01799
 962   96624.6    103.5      0.02368  -0.04353   0.05710   0.00030
 963   96656.8    103.5     -0.00331  -0.00004  -0.00014   0.07889
 964   96663.8    103.5     -0.00101  -0.10050  -0.04203   0.00002
 965   96667.9    103.4     -0.00283  -0.12313  -0.07665  -0.00046
 966   96737.2    103.4     -0.06008   0.06063  -0.01262  -0.00033
 967   96755.5    103.4      0.05540  -0.00016   0.00017  -0.07663
 968   96834.3    103.3      0.08813   0.15816   0.18914   0.00000
 969   96836.7    103.3      0.03035  -0.20267   0.10445   0.00007
 970   96839.8    103.3     -0.11936   0.00014  -0.00167   0.00732
 971   96874.8    103.2     -0.00188  -0.00005   0.00012  -0.00093
 972   96882.6    103.2      0.00889  -0.03724  -0.00924   0.00005
 973   96911.5    103.2     -0.00073  -0.00011   0.00012  -0.01208
 974   96930.5    103.2     -0.00044  -0.00020   0.00002   0.01819
 975   96976.2    103.1     -0.00026   0.01960  -0.07886   0.00007
 976   97013.2    103.1     -0.06520  -0.00057   0.00026   0.22673
 977   97018.7    103.1      0.04250   0.06537  -0.05436   0.00137
 978   97042.5    103.0     -0.03760   0.00121  -0.00003  -0.01196
 979   97047.9    103.0      0.02956   0.04372   0.00262   0.00019
 980   97100.2    103.0      0.00315   0.07648  -0.02287  -0.00010
 981   97131.2    103.0      0.00761   0.04105   0.03429  -0.00001
 982   97186.3    102.9      0.00470  -0.00000   0.00005   0.00773
 983   97205.4    102.9     -0.00055  -0.10996  -0.11571   0.00002
 984   97239.3    102.8      0.06221   0.21618  -0.06773   0.00004
 985   97279.4    102.8      0.00334   0.00226   0.22981  -0.00002
 986   97316.5    102.8     -0.07639   0.00037  -0.00029   0.00210
 987   97368.3    102.7     -0.04410   0.03794  -0.10497  -0.00046
 988   97370.0    102.7      0.04563   0.00011  -0.00027   0.10307
 989   97383.5    102.7     -0.02976  -0.16394   0.00210  -0.00019
 990   97399.8    102.7      0.01323   0.02712  -0.00610  -0.00031
 991   97420.2    102.6      0.00119   0.01770  -0.14511   0.00006
 992   97443.9    102.6      0.00543  -0.00132   0.02029  -0.00026
 993   97468.5    102.6      0.09386   0.00114   0.00039  -0.03494
 994   97472.8    102.6     -0.08843   0.16525  -0.00134   0.00088
 995   97484.9    102.6     -0.14271  -0.00174   0.00189   0.07136
 996   97493.8    102.6      0.11791   0.00841  -0.17826   0.00060
 997   97503.5    102.6      0.00382  -0.07692   0.08906  -0.00028
 998   97531.9    102.5     -0.00759   0.21842   0.15538   0.00016
 999   97541.2    102.5      0.06453  -0.13898   0.17730  -0.00012
 1000   97555.7    102.5      0.01228  -0.00003  -0.00084   0.04951

Total run time:    13990.641 sec

           *** ORCA-CIS/TD-DFT FINISHED WITHOUT ERROR ***

Maximum memory used throughout the entire CIS-calculation: 4406.9 MB

-----------------------
CIS/TD-DFT TOTAL ENERGY
-----------------------

    E(SCF)  =   -917.540560980 Eh
    DE(CIS) =      0.103934865 Eh (Root  1)
    ----------------------------- ---------
    E(tot)  =   -917.436626115 Eh



-------------------------------------------------------------------------------
                          DFT DISPERSION CORRECTION                            
                                                                               
                                 DFTD4 V2.5                                    
-------------------------------------------------------------------------------
The B3LYP functional is recognized
Active option DFTDOPT                   ...         5   

Starting D4
-------------------------   ----------------
Dispersion correction           -0.096521331
-------------------------   ----------------


-------------------------   --------------------
FINAL SINGLE POINT ENERGY      -917.533147446072
-------------------------   --------------------


                            ***************************************
                            *     ORCA property calculations      *
                            ***************************************

                                    ---------------------
                                    Active property flags
                                    ---------------------
   (+) Dipole Moment


------------------------------------------------------------------------------
                       ORCA ELECTRIC PROPERTIES CALCULATION
------------------------------------------------------------------------------

Dipole Moment Calculation                       ... on
Quadrupole Moment Calculation                   ... off
Polarizability Calculation                      ... off
GBWName                                         ... loss_eight_seven_eleven_twelve_three_four_spectra.gbw
Electron density                                ... loss_eight_seven_eleven_twelve_three_four_spectra.scfp
The origin for moment calculation is the CENTER OF MASS  = ( 0.000130, -0.001578 -0.000386)

-------------
DIPOLE MOMENT
-------------
                                X             Y             Z
Electronic contribution:      0.00050       0.00026       0.00000
Nuclear contribution   :     -0.00025      -0.00015      -0.00000
                        -----------------------------------------
Total Dipole Moment    :      0.00025       0.00012      -0.00000
                        -----------------------------------------
Magnitude (a.u.)       :      0.00028
Magnitude (Debye)      :      0.00070



--------------------
Rotational spectrum 
--------------------
 
Rotational constants in cm-1:     0.011741     0.011740     0.005870 
Rotational constants in MHz :   351.993101   351.966183   175.989821 

 Dipole components along the rotational axes: 
x,y,z [a.u.] :    -0.000259     0.000094    -0.000003 
x,y,z [Debye]:    -0.000659     0.000240    -0.000007 

 

Timings for individual modules:

Sum of individual times         ...    15063.489 sec (= 251.058 min)
GTO integral calculation        ...       13.136 sec (=   0.219 min)   0.1 %
SCF iterations                  ...     1036.403 sec (=  17.273 min)   6.9 %
CIS module                      ...    14013.950 sec (= 233.566 min)  93.0 %
                             ****ORCA TERMINATED NORMALLY****
TOTAL RUN TIME: 0 days 4 hours 11 minutes 9 seconds 205 msec
