
                                 *****************
                                 * O   R   C   A *
                                 *****************

                                            #,                                       
                                            ###                                      
                                            ####                                     
                                            #####                                    
                                            ######                                   
                                           ########,                                 
                                     ,,################,,,,,                         
                               ,,#################################,,                 
                          ,,##########################################,,             
                       ,#########################################, ''#####,          
                    ,#############################################,,   '####,        
                  ,##################################################,,,,####,       
                ,###########''''           ''''###############################       
              ,#####''   ,,,,##########,,,,          '''####'''          '####       
            ,##' ,,,,###########################,,,                        '##       
           ' ,,###''''                  '''############,,,                           
         ,,##''                                '''############,,,,        ,,,,,,###''
      ,#''                                            '''#######################'''  
     '                                                          ''''####''''         
             ,#######,   #######,   ,#######,      ##                                
            ,#'     '#,  ##    ##  ,#'     '#,    #''#        ######   ,####,        
            ##       ##  ##   ,#'  ##            #'  '#       #        #'  '#        
            ##       ##  #######   ##           ,######,      #####,   #    #        
            '#,     ,#'  ##    ##  '#,     ,#' ,#      #,         ##   #,  ,#        
             '#######'   ##     ##  '#######'  #'      '#     #####' # '####'        



                  #######################################################
                  #                        -***-                        #
                  #          Department of theory and spectroscopy      #
                  #    Directorship and core code : Frank Neese         #
                  #        Max Planck Institute fuer Kohlenforschung    #
                  #                Kaiser Wilhelm Platz 1               #
                  #                 D-45470 Muelheim/Ruhr               #
                  #                      Germany                        #
                  #                                                     #
                  #                  All rights reserved                #
                  #                        -***-                        #
                  #######################################################



                         Program Version 5.0.4 -  RELEASE  -

 With contributions from (in alphabetic order):
   Daniel Aravena         : Magnetic Suceptibility
   Michael Atanasov       : Ab Initio Ligand Field Theory (pilot matlab implementation)
   Alexander A. Auer      : GIAO ZORA, VPT2 properties, NMR spectrum
   Ute Becker             : Parallelization
   Giovanni Bistoni       : ED, misc. LED, open-shell LED, HFLD
   Martin Brehm           : Molecular dynamics
   Dmytro Bykov           : SCF Hessian
   Vijay G. Chilkuri      : MRCI spin determinant printing, contributions to CSF-ICE
   Dipayan Datta          : RHF DLPNO-CCSD density
   Achintya Kumar Dutta   : EOM-CC, STEOM-CC
   Dmitry Ganyushin       : Spin-Orbit,Spin-Spin,Magnetic field MRCI
   Miquel Garcia          : C-PCM and meta-GGA Hessian, CC/C-PCM, Gaussian charge scheme
   Yang Guo               : DLPNO-NEVPT2, F12-NEVPT2, CIM, IAO-localization
   Andreas Hansen         : Spin unrestricted coupled pair/coupled cluster methods
   Benjamin Helmich-Paris : MC-RPA, TRAH-SCF, COSX integrals
   Lee Huntington         : MR-EOM, pCC
   Robert Izsak           : Overlap fitted RIJCOSX, COSX-SCS-MP3, EOM
   Marcus Kettner         : VPT2
   Christian Kollmar      : KDIIS, OOCD, Brueckner-CCSD(T), CCSD density, CASPT2, CASPT2-K
   Simone Kossmann        : Meta GGA functionals, TD-DFT gradient, OOMP2, MP2 Hessian
   Martin Krupicka        : Initial AUTO-CI
   Lucas Lang             : DCDCAS
   Marvin Lechner         : AUTO-CI (C++ implementation), FIC-MRCC
   Dagmar Lenk            : GEPOL surface, SMD
   Dimitrios Liakos       : Extrapolation schemes; Compound Job, initial MDCI parallelization
   Dimitrios Manganas     : Further ROCIS development; embedding schemes
   Dimitrios Pantazis     : SARC Basis sets
   Anastasios Papadopoulos: AUTO-CI, single reference methods and gradients
   Taras Petrenko         : DFT Hessian,TD-DFT gradient, ASA, ECA, R-Raman, ABS, FL, XAS/XES, NRVS
   Peter Pinski           : DLPNO-MP2, DLPNO-MP2 Gradient
   Christoph Reimann      : Effective Core Potentials
   Marius Retegan         : Local ZFS, SOC
   Christoph Riplinger    : Optimizer, TS searches, QM/MM, DLPNO-CCSD(T), (RO)-DLPNO pert. Triples
   Tobias Risthaus        : Range-separated hybrids, TD-DFT gradient, RPA, STAB
   Michael Roemelt        : Original ROCIS implementation
   Masaaki Saitow         : Open-shell DLPNO-CCSD energy and density
   Barbara Sandhoefer     : DKH picture change effects
   Avijit Sen             : IP-ROCIS
   Kantharuban Sivalingam : CASSCF convergence, NEVPT2, FIC-MRCI
   Bernardo de Souza      : ESD, SOC TD-DFT
   Georgi Stoychev        : AutoAux, RI-MP2 NMR, DLPNO-MP2 response
   Willem Van den Heuvel  : Paramagnetic NMR
   Boris Wezisla          : Elementary symmetry handling
   Frank Wennmohs         : Technical directorship


 We gratefully acknowledge several colleagues who have allowed us to
 interface, adapt or use parts of their codes:
   Stefan Grimme, W. Hujo, H. Kruse, P. Pracht,  : VdW corrections, initial TS optimization,
                  C. Bannwarth, S. Ehlert          DFT functionals, gCP, sTDA/sTD-DF
   Ed Valeev, F. Pavosevic, A. Kumar             : LibInt (2-el integral package), F12 methods
   Garnet Chan, S. Sharma, J. Yang, R. Olivares  : DMRG
   Ulf Ekstrom                                   : XCFun DFT Library
   Mihaly Kallay                                 : mrcc  (arbitrary order and MRCC methods)
   Jiri Pittner, Ondrej Demel                    : Mk-CCSD
   Frank Weinhold                                : gennbo (NPA and NBO analysis)
   Christopher J. Cramer and Donald G. Truhlar   : smd solvation model
   Lars Goerigk                                  : TD-DFT with DH, B97 family of functionals
   V. Asgeirsson, H. Jonsson                     : NEB implementation
   FAccTs GmbH                                   : IRC, NEB, NEB-TS, DLPNO-Multilevel, CI-OPT
                                                   MM, QMMM, 2- and 3-layer-ONIOM, Crystal-QMMM,
                                                   LR-CPCM, SF, NACMEs, symmetry and pop. for TD-DFT,
                                                   nearIR, NL-DFT gradient (VV10), updates on ESD,
                                                   ML-optimized integration grids
   S Lehtola, MJT Oliveira, MAL Marques          : LibXC Library
   Liviu Ungur et al                             : ANISO software


 Your calculation uses the libint2 library for the computation of 2-el integrals
 For citations please refer to: http://libint.valeyev.net

 Your ORCA version has been built with support for libXC version: 5.1.0
 For citations please refer to: https://tddft.org/programs/libxc/

 This ORCA versions uses:
   CBLAS   interface :  Fast vector & matrix operations
   LAPACKE interface :  Fast linear algebra routines
   Shared memory     :  Shared parallel matrices


Your calculation utilizes the atom-pairwise dispersion correction
based on tight binding partial charges (D4)
Cite in your paper:
E.Caldeweyher, C.Bannwarth, S.Grimme, J.Chem.Phys., (2017), 147, 034112.
E.Caldeweyher, S.Ehlert, A.Hansen, H.Neugebauer, S.Grimme, J.Chem.Phys., (2018), in progress.
   

================================================================================

----- Orbital basis set information -----
Your calculation utilizes the basis: 6-311+G**
   H, Li - Ne  : R. Krishnan, J. S. Binkley, R. Seeger and J. A. Pople, J. Chem. Phys. 72, 650 (1980).
   Na - Ar     : A. D. McLean and G. S. Chandler J. Chem. Phys. 72, 5639, (1980).
   K  - Ca     : J.-P. Blaudeau, M. P. McGrath, L. A. Curtiss and L. Radom, J. Chem. Phys. 107, 5016 (1997).
   Ga - Kr     : L. A. Curtiss, M. P. McGrath, J.-P. Blandeau, N. E. Davis, R. C. Binning and L. Radom, J. Chem. Phys. 103, 6104 (1995).
   Pol./Diff.
   H, Li - Cl  : T. Clark, J. Chandrasekhar and P. v. R. Schleyer, J. Comp. Chem. 4, 294 (1983).
   H - Ne      : M. J. Frisch, J. A. Pople and J. S. Binkley, J. Chem. Phys. 80, 3265 (1984).

----- AuxJ basis set information -----
Your calculation utilizes the auxiliary basis: def2/J
   F. Weigend, Phys. Chem. Chem. Phys. 8, 1057 (2006).

================================================================================
                                        WARNINGS
                       Please study these warnings very carefully!
================================================================================

INFO   : Checking CIS options ...

WARNING: CIS/ROCIS methods need fully converged wavefunctions
  ===> : Setting SCFConvForced true
         You can overwrite this default with %scf ConvForced false 


INFO   : the flag for use of the SHARK integral package has been found!

================================================================================
                                       INPUT FILE
================================================================================
NAME = Acenaphthene_spectra.inp
|  1> !B3LYP 6-311+G**  D4
|  2> 
|  3> %maxcore 5000
|  4> %pal
|  5> nprocs 7
|  6> end
|  7> 
|  8> %TDDFT
|  9>   NROOTS 1000
| 10>   END
| 11> 
| 12> %scf
| 13> stabperform true
| 14> STABDTol 1e-5
| 15> STABRTol 1e-5
| 16> end
| 17>   
| 18> * XYZ 0 1
| 19>   C   0.78369955260720     -2.35504525264630     -0.00023808357704
| 20>   C   -0.78369637694139     -2.35504641388410      0.00013378256671
| 21>   C   -1.17361698941675     -0.88811076846892     -0.00002147923963
| 22>   C   -2.39198214844659     -0.25250883760890     -0.00003207291595
| 23>   C   -2.42297036751965      1.16857143938592     -0.00007087132505
| 24>   C   -1.27358511398494      1.93256282447503     -0.00008320754857
| 25>   C   -0.00000100035964      1.30453082628835     -0.00007880657579
| 26>   C   1.27358206641138      1.93256459362965     -0.00008405118965
| 27>   C   2.42296848500334      1.16857484634030     -0.00008458181567
| 28>   C   2.39198225835596     -0.25250541197616     -0.00010224566366
| 29>   C   1.17361792548015     -0.88810898615641     -0.00010358428754
| 30>   C   -0.00000005714253     -0.10715555989346     -0.00006810843805
| 31>   H   1.18365250229207     -2.87326778522408      0.87637029015427
| 32>   H   1.18317455131464     -2.87286652771657     -0.87730709384332
| 33>   H   -1.18364854332015     -2.87328219574537     -0.87646710977918
| 34>   H   -1.18317046077847     -2.87285578192771      0.87721026304997
| 35>   H   -3.32450522341235     -0.80883469733519      0.00000207446805
| 36>   H   -3.38773566365317      1.66669394019372     -0.00008134479695
| 37>   H   -1.34018346522423      3.01645963906894     -0.00009999316040
| 38>   H   1.34017894706046      3.01646151893004     -0.00008457956324
| 39>   H   3.38773307715323      1.66669871259211     -0.00008095604207
| 40>   H   3.32450604452143     -0.80883012232088     -0.00012824047726
| 41> **                         ****END OF INPUT****
================================================================================

                       ****************************
                       * Single Point Calculation *
                       ****************************

---------------------------------
CARTESIAN COORDINATES (ANGSTROEM)
---------------------------------
  C      0.783700   -2.355045   -0.000238
  C     -0.783696   -2.355046    0.000134
  C     -1.173617   -0.888111   -0.000021
  C     -2.391982   -0.252509   -0.000032
  C     -2.422970    1.168571   -0.000071
  C     -1.273585    1.932563   -0.000083
  C     -0.000001    1.304531   -0.000079
  C      1.273582    1.932565   -0.000084
  C      2.422968    1.168575   -0.000085
  C      2.391982   -0.252505   -0.000102
  C      1.173618   -0.888109   -0.000104
  C     -0.000000   -0.107156   -0.000068
  H      1.183653   -2.873268    0.876370
  H      1.183175   -2.872867   -0.877307
  H     -1.183649   -2.873282   -0.876467
  H     -1.183170   -2.872856    0.877210
  H     -3.324505   -0.808835    0.000002
  H     -3.387736    1.666694   -0.000081
  H     -1.340183    3.016460   -0.000100
  H      1.340179    3.016462   -0.000085
  H      3.387733    1.666699   -0.000081
  H      3.324506   -0.808830   -0.000128

----------------------------
CARTESIAN COORDINATES (A.U.)
----------------------------
  NO LB      ZA    FRAG     MASS         X           Y           Z
   0 C     6.0000    0    12.011    1.480978   -4.450391   -0.000450
   1 C     6.0000    0    12.011   -1.480972   -4.450393    0.000253
   2 C     6.0000    0    12.011   -2.217815   -1.678286   -0.000041
   3 C     6.0000    0    12.011   -4.520191   -0.477173   -0.000061
   4 C     6.0000    0    12.011   -4.578750    2.208280   -0.000134
   5 C     6.0000    0    12.011   -2.406727    3.652014   -0.000157
   6 C     6.0000    0    12.011   -0.000002    2.465206   -0.000149
   7 C     6.0000    0    12.011    2.406721    3.652018   -0.000159
   8 C     6.0000    0    12.011    4.578747    2.208286   -0.000160
   9 C     6.0000    0    12.011    4.520191   -0.477166   -0.000193
  10 C     6.0000    0    12.011    2.217816   -1.678283   -0.000196
  11 C     6.0000    0    12.011   -0.000000   -0.202495   -0.000129
  12 H     1.0000    0     1.008    2.236779   -5.429689    1.656100
  13 H     1.0000    0     1.008    2.235876   -5.428931   -1.657870
  14 H     1.0000    0     1.008   -2.236772   -5.429716   -1.656283
  15 H     1.0000    0     1.008   -2.235868   -5.428911    1.657687
  16 H     1.0000    0     1.008   -6.282404   -1.528476    0.000004
  17 H     1.0000    0     1.008   -6.401893    3.149595   -0.000154
  18 H     1.0000    0     1.008   -2.532580    5.700283   -0.000189
  19 H     1.0000    0     1.008    2.532571    5.700286   -0.000160
  20 H     1.0000    0     1.008    6.401888    3.149604   -0.000153
  21 H     1.0000    0     1.008    6.282406   -1.528467   -0.000242

--------------------------------
INTERNAL COORDINATES (ANGSTROEM)
--------------------------------
 C      0   0   0     0.000000000000     0.00000000     0.00000000
 C      1   0   0     1.567395973662     0.00000000     0.00000000
 C      2   1   0     1.517872951182   104.88533576     0.00000000
 C      3   2   1     1.374191935416   132.43572046   179.98913651
 C      4   3   2     1.421418103476   118.79954006   179.99400468
 C      5   4   3     1.380133797023   122.36261413     0.00000000
 C      6   5   4     1.420014325718   120.13927855     0.00000000
 C      7   6   5     1.420014169265   127.50210174   180.00029229
 C      8   7   6     1.380133860612   120.13927925   180.00028883
 C      9   8   7     1.421418040947   122.36261100     0.00000000
 C     10   9   8     1.374191962986   118.79953646     0.00000000
 C     11  10   9     1.409704729504   118.80884048     0.00000000
 H      1   2   3     1.094056303912   111.43087399   120.59718273
 H      1   2   3     1.094060874119   111.42729823   239.44936232
 H      2   1   3     1.094056299033   111.43087332   120.57865497
 H      2   1   3     1.094060893144   111.42728963   239.43082659
 H      4   3   2     1.085862674886   121.63014601     0.00000000
 H      5   4   3     1.085770741245   118.55717119   179.99986621
 H      6   5   4     1.085940903252   120.09578400   180.00080015
 H      8   7   6     1.085940923434   119.76494236     0.00000000
 H      9   8   7     1.085770742104   119.08021701   180.00046309
 H     10   9   8     1.085862696560   119.57032287   179.99840184

---------------------------
INTERNAL COORDINATES (A.U.)
---------------------------
 C      0   0   0     0.000000000000     0.00000000     0.00000000
 C      1   0   0     2.961949133632     0.00000000     0.00000000
 C      2   1   0     2.868364183820   104.88533576     0.00000000
 C      3   2   1     2.596846413380   132.43572046   179.98913651
 C      4   3   2     2.686090937368   118.79954006   179.99400468
 C      5   4   3     2.608074904543   122.36261413     0.00000000
 C      6   5   4     2.683438181852   120.13927855     0.00000000
 C      7   6   5     2.683437886199   127.50210174   180.00029229
 C      8   7   6     2.608075024708   120.13927925   180.00028883
 C      9   8   7     2.686090819205   122.36261100     0.00000000
 C     10   9   8     2.596846465480   118.79953646     0.00000000
 C     11  10   9     2.663955868456   118.80884048     0.00000000
 H      1   2   3     2.067466789483   111.43087399   120.59718273
 H      1   2   3     2.067475425923   111.42729823   239.44936232
 H      2   1   3     2.067466780264   111.43087332   120.57865497
 H      2   1   3     2.067475461876   111.42728963   239.43082659
 H      4   3   2     2.051983074581   121.63014601     0.00000000
 H      5   4   3     2.051809345178   118.55717119   179.99986621
 H      6   5   4     2.052130904770   120.09578400   180.00080015
 H      8   7   6     2.052130942907   119.76494236     0.00000000
 H      9   8   7     2.051809346801   119.08021701   180.00046309
 H     10   9   8     2.051983115539   119.57032287   179.99840184

---------------------
BASIS SET INFORMATION
---------------------
There are 2 groups of distinct atoms

 Group   1 Type C   : 12s6p1d contracted to 5s4p1d pattern {63111/3111/1}
 Group   2 Type H   : 5s1p contracted to 3s1p pattern {311/1}

Atom   0C    basis set group =>   1
Atom   1C    basis set group =>   1
Atom   2C    basis set group =>   1
Atom   3C    basis set group =>   1
Atom   4C    basis set group =>   1
Atom   5C    basis set group =>   1
Atom   6C    basis set group =>   1
Atom   7C    basis set group =>   1
Atom   8C    basis set group =>   1
Atom   9C    basis set group =>   1
Atom  10C    basis set group =>   1
Atom  11C    basis set group =>   1
Atom  12H    basis set group =>   2
Atom  13H    basis set group =>   2
Atom  14H    basis set group =>   2
Atom  15H    basis set group =>   2
Atom  16H    basis set group =>   2
Atom  17H    basis set group =>   2
Atom  18H    basis set group =>   2
Atom  19H    basis set group =>   2
Atom  20H    basis set group =>   2
Atom  21H    basis set group =>   2
---------------------------------
AUXILIARY/J BASIS SET INFORMATION
---------------------------------
There are 2 groups of distinct atoms

 Group   1 Type C   : 12s5p4d2f1g contracted to 6s4p3d1f1g pattern {711111/2111/211/2/1}
 Group   2 Type H   : 5s2p1d contracted to 3s1p1d pattern {311/2/1}

Atom   0C    basis set group =>   1
Atom   1C    basis set group =>   1
Atom   2C    basis set group =>   1
Atom   3C    basis set group =>   1
Atom   4C    basis set group =>   1
Atom   5C    basis set group =>   1
Atom   6C    basis set group =>   1
Atom   7C    basis set group =>   1
Atom   8C    basis set group =>   1
Atom   9C    basis set group =>   1
Atom  10C    basis set group =>   1
Atom  11C    basis set group =>   1
Atom  12H    basis set group =>   2
Atom  13H    basis set group =>   2
Atom  14H    basis set group =>   2
Atom  15H    basis set group =>   2
Atom  16H    basis set group =>   2
Atom  17H    basis set group =>   2
Atom  18H    basis set group =>   2
Atom  19H    basis set group =>   2
Atom  20H    basis set group =>   2
Atom  21H    basis set group =>   2


           ************************************************************
           *        Program running with 7 parallel MPI-processes     *
           *              working on a common directory               *
           ************************************************************
------------------------------------------------------------------------------
                           ORCA GTO INTEGRAL CALCULATION
                           -- RI-GTO INTEGRALS CHOSEN --
------------------------------------------------------------------------------
------------------------------------------------------------------------------
                   ___                                                        
                  /   \      - P O W E R E D   B Y -                         
                 /     \                                                     
                 |  |  |   _    _      __       _____    __    __             
                 |  |  |  | |  | |    /  \     |  _  \  |  |  /  |          
                  \  \/   | |  | |   /    \    | | | |  |  | /  /          
                 / \  \   | |__| |  /  /\  \   | |_| |  |  |/  /          
                |  |  |   |  __  | /  /__\  \  |    /   |      \           
                |  |  |   | |  | | |   __   |  |    \   |  |\   \          
                \     /   | |  | | |  |  |  |  | |\  \  |  | \   \       
                 \___/    |_|  |_| |__|  |__|  |_| \__\ |__|  \__/        
                                                                              
                      - O R C A' S   B I G   F R I E N D -                    
                                      &                                       
                       - I N T E G R A L  F E E D E R -                       
                                                                              
 v1 FN, 2020, v2 2021                                                         
------------------------------------------------------------------------------


Reading SHARK input file Acenaphthene_spectra.SHARKINP.tmp ... ok
----------------------
SHARK INTEGRAL PACKAGE
----------------------

Number of atoms                             ...     22
Number of basis functions                   ...    324
Number of shells                            ...    160
Maximum angular momentum                    ...      2
Integral batch strategy                     ... SHARK/LIBINT Hybrid
RI-J (if used) integral strategy            ... SPLIT-RIJ (Revised 2003 algorithm where possible)
Printlevel                                  ...      1
Contraction scheme used                     ... SEGMENTED contraction
Coulomb Range Separation                    ... NOT USED
Exchange Range Separation                   ... NOT USED
Finite Nucleus Model                        ... NOT USED
Auxiliary Coulomb fitting basis             ... AVAILABLE
   # of basis functions in Aux-J            ...    698
   # of shells in Aux-J                     ...    230
   Maximum angular momentum in Aux-J        ...      4
Auxiliary J/K fitting basis                 ... NOT available
Auxiliary Correlation fitting basis         ... NOT available
Auxiliary 'external' fitting basis          ... NOT available
Integral threshold                          ...     1.000000e-10
Primitive cut-off                           ...     1.000000e-11
Primitive pair pre-selection threshold      ...     1.000000e-11

Calculating pre-screening integrals         ... done (  0.0 sec) Dimension = 160
Organizing shell pair data                  ... done (  0.1 sec)
Shell pair information
Total number of shell pairs                 ...     12880
Shell pairs after pre-screening             ...     11486
Total number of primitive shell pairs       ...     41898
Primitive shell pairs kept                  ...     26558
          la=0 lb=0:   3539 shell pairs
          la=1 lb=0:   4682 shell pairs
          la=1 lb=1:   1561 shell pairs
          la=2 lb=0:    972 shell pairs
          la=2 lb=1:    654 shell pairs
          la=2 lb=2:     78 shell pairs

Calculating one electron integrals          ... done (  0.0 sec)
Calculating RI/J V-Matrix + Cholesky decomp.... done (  0.0 sec)
Calculating Nuclear repulsion               ... done (  0.0 sec) ENN=    635.116547970306 Eh

SHARK setup successfully completed in   0.3 seconds

Maximum memory used throughout the entire GTOINT-calculation: 18.6 MB


           ************************************************************
           *        Program running with 7 parallel MPI-processes     *
           *              working on a common directory               *
           ************************************************************
-------------------------------------------------------------------------------
                                 ORCA SCF
-------------------------------------------------------------------------------

------------
SCF SETTINGS
------------
Hamiltonian:
 Density Functional     Method          .... DFT(GTOs)
 Exchange Functional    Exchange        .... B88
   X-Alpha parameter    XAlpha          ....  0.666667
   Becke's b parameter  XBeta           ....  0.004200
 Correlation Functional Correlation     .... LYP
 LDA part of GGA corr.  LDAOpt          .... VWN-5
 Gradients option       PostSCFGGA      .... off
 Hybrid DFT is turned on
   Fraction HF Exchange ScalHFX         ....  0.200000
   Scaling of DF-GGA-X  ScalDFX         ....  0.720000
   Scaling of DF-GGA-C  ScalDFC         ....  0.810000
   Scaling of DF-LDA-C  ScalLDAC        ....  1.000000
   Perturbative correction              ....  0.000000
   Density functional embedding theory  .... OFF
   NL short-range parameter             ....  4.800000
 RI-approximation to the Coulomb term is turned on
   Number of AuxJ basis functions       .... 698
   RIJ-COSX (HFX calculated with COS-X)).... on


General Settings:
 Integral files         IntName         .... Acenaphthene_spectra
 Hartree-Fock type      HFTyp           .... RHF
 Total Charge           Charge          ....    0
 Multiplicity           Mult            ....    1
 Number of Electrons    NEL             ....   82
 Basis Dimension        Dim             ....  324
 Nuclear Repulsion      ENuc            ....    635.1165479703 Eh

Convergence Acceleration:
 DIIS                   CNVDIIS         .... on
   Start iteration      DIISMaxIt       ....    12
   Startup error        DIISStart       ....  0.200000
   # of expansion vecs  DIISMaxEq       ....     5
   Bias factor          DIISBfac        ....   1.050
   Max. coefficient     DIISMaxC        ....  10.000
 Trust-Rad. Augm. Hess. CNVTRAH         .... auto
   Auto Start mean grad. ratio tolernc. ....  1.125000
   Auto Start start iteration           ....    20
   Auto Start num. interpolation iter.  ....    10
   Max. Number of Micro iterations      ....    16
   Max. Number of Macro iterations      .... Maxiter - #DIIS iter
   Number of Davidson start vectors     ....     2
   Converg. threshold I  (grad. norm)   ....   5.000e-05
   Converg. threshold II (energy diff.) ....   1.000e-06
   Grad. Scal. Fac. for Micro threshold ....   0.100
   Minimum threshold for Micro iter.    ....   0.010
   NR start threshold (gradient norm)   ....   0.001
   Initial trust radius                 ....   0.400
   Minimum AH scaling param. (alpha)    ....   1.000
   Maximum AH scaling param. (alpha)    .... 1000.000
   Orbital update algorithm             .... Taylor
   White noise on init. David. guess    .... on
   Maximum white noise                  ....   0.010
   Quad. conv. algorithm                .... NR
 SOSCF                  CNVSOSCF        .... on
   Start iteration      SOSCFMaxIt      ....   150
   Startup grad/error   SOSCFStart      ....  0.003300
 Level Shifting         CNVShift        .... on
   Level shift para.    LevelShift      ....    0.2500
   Turn off err/grad.   ShiftErr        ....    0.0010
 Zerner damping         CNVZerner       .... off
 Static damping         CNVDamp         .... on
   Fraction old density DampFac         ....    0.7000
   Max. Damping (<1)    DampMax         ....    0.9800
   Min. Damping (>=0)   DampMin         ....    0.0000
   Turn off err/grad.   DampErr         ....    0.1000
 Fernandez-Rico         CNVRico         .... off

SCF Procedure:
 Maximum # iterations   MaxIter         ....   125
 SCF integral mode      SCFMode         .... Direct
   Integral package                     .... SHARK and LIBINT hybrid scheme
 Reset frequency        DirectResetFreq ....    20
 Integral Threshold     Thresh          ....  1.000e-10 Eh
 Primitive CutOff       TCut            ....  1.000e-11 Eh

Convergence Tolerance:
 Convergence Check Mode ConvCheckMode   .... Total+1el-Energy
 Convergence forced     ConvForced      .... 1
 Energy Change          TolE            ....  1.000e-06 Eh
 1-El. energy change                    ....  1.000e-03 Eh
 Orbital Gradient       TolG            ....  5.000e-05
 Orbital Rotation angle TolX            ....  5.000e-05
 DIIS Error             TolErr          ....  1.000e-06


Diagonalization of the overlap matrix:
Smallest eigenvalue                        ... 1.113e-07
Time for diagonalization                   ...    0.010 sec
Threshold for overlap eigenvalues          ... 1.000e-08
Number of eigenvalues below threshold      ... 0
Time for construction of square roots      ...    0.031 sec
Total time needed                          ...    0.043 sec

Time for model grid setup =    0.136 sec

------------------------------
INITIAL GUESS: MODEL POTENTIAL
------------------------------
Loading Hartree-Fock densities                     ... done
Calculating cut-offs                               ... done
Initializing the effective Hamiltonian             ... done
Setting up the integral package (SHARK)            ... done
Starting the Coulomb interaction                   ... done (   0.1 sec)
Reading the grid                                   ... done
Mapping shells                                     ... done
Starting the XC term evaluation                    ... done (   0.1 sec)
  promolecular density results
     # of electrons  =     81.989876387
     EX              =    -64.698985466
     EC              =     -2.738356367
     EX+EC           =    -67.437341833
Transforming the Hamiltonian                       ... done (   0.0 sec)
Diagonalizing the Hamiltonian                      ... done (   0.0 sec)
Back transforming the eigenvectors                 ... done (   0.0 sec)
Now organizing SCF variables                       ... done
                      ------------------
                      INITIAL GUESS DONE (   0.4 sec)
                      ------------------
-------------------
DFT GRID GENERATION
-------------------

General Integration Accuracy     IntAcc      ... 4.388
Radial Grid Type                 RadialGrid  ... OptM3 with GC (2021)
Angular Grid (max. ang.)         AngularGrid ... 4 (Lebedev-302)
Angular grid pruning method      GridPruning ... 4 (adaptive)
Weight generation scheme         WeightScheme... Becke
Basis function cutoff            BFCut       ... 1.0000e-10
Integration weight cutoff        WCut        ... 1.0000e-14
Angular grids for H and He will be reduced by one unit
Partially contracted basis set               ... off
Rotationally invariant grid construction     ... off

Total number of grid points                  ...   106421
Total number of batches                      ...     1673
Average number of points per batch           ...       63
Average number of grid points per atom       ...     4837
Time for grid setup =    0.581 sec

--------------------
COSX GRID GENERATION
--------------------

GRIDX 1
-------
General Integration Accuracy     IntAcc      ... 3.816
Radial Grid Type                 RadialGrid  ... OptM3 with GC (2021)
Angular Grid (max. ang.)         AngularGrid ... 1 (Lebedev-50)
Angular grid pruning method      GridPruning ... 4 (adaptive)
Weight generation scheme         WeightScheme... Becke
Basis function cutoff            BFCut       ... 1.0000e-10
Integration weight cutoff        WCut        ... 1.0000e-14
Angular grids for H and He will be reduced by one unit
Partially contracted basis set               ... on
Rotationally invariant grid construction     ... off

Total number of grid points                  ...    13592
Total number of batches                      ...      226
Average number of points per batch           ...       60
Average number of grid points per atom       ...      618
UseSFitting                                  ... on

GRIDX 2
-------
General Integration Accuracy     IntAcc      ... 4.020
Radial Grid Type                 RadialGrid  ... OptM3 with GC (2021)
Angular Grid (max. ang.)         AngularGrid ... 2 (Lebedev-110)
Angular grid pruning method      GridPruning ... 4 (adaptive)
Weight generation scheme         WeightScheme... Becke
Basis function cutoff            BFCut       ... 1.0000e-10
Integration weight cutoff        WCut        ... 1.0000e-14
Angular grids for H and He will be reduced by one unit
Partially contracted basis set               ... on
Rotationally invariant grid construction     ... off

Total number of grid points                  ...    31917
Total number of batches                      ...      511
Average number of points per batch           ...       62
Average number of grid points per atom       ...     1451
UseSFitting                                  ... on

GRIDX 3
-------
General Integration Accuracy     IntAcc      ... 4.338
Radial Grid Type                 RadialGrid  ... OptM3 with GC (2021)
Angular Grid (max. ang.)         AngularGrid ... 3 (Lebedev-194)
Angular grid pruning method      GridPruning ... 4 (adaptive)
Weight generation scheme         WeightScheme... Becke
Basis function cutoff            BFCut       ... 1.0000e-10
Integration weight cutoff        WCut        ... 1.0000e-14
Angular grids for H and He will be reduced by one unit
Partially contracted basis set               ... on
Rotationally invariant grid construction     ... off

Total number of grid points                  ...    69038
Total number of batches                      ...     1089
Average number of points per batch           ...       63
Average number of grid points per atom       ...     3138
UseSFitting                                  ... on

Time for X-Grid setup             =    0.749 sec

--------------
SCF ITERATIONS
--------------
ITER       Energy         Delta-E        Max-DP      RMS-DP      [F,P]     Damp
               ***  Starting incremental Fock matrix formation  ***
  0   -462.8597464620   0.00000000000010.43824798  0.07385233  0.1660790 0.7000
  1   -462.9766567456  -0.116910283648 3.47432805  0.01915712  0.0902013 0.7000
                               ***Turning on DIIS***
  2   -463.0295958851  -0.052939139531 5.49040996  0.04950453  0.0384796 0.0000
  3   -463.1040924439  -0.074496558804 1.71730450  0.01484410  0.0432810 0.0000
  4   -463.1240268926  -0.019934448626 2.29060272  0.02236035  0.0077979 0.0000
                      *** Initiating the SOSCF procedure ***
                           *** Shutting down DIIS ***
                      *** Re-Reading the Fockian *** 
                      *** Removing any level shift *** 
ITER      Energy       Delta-E        Grad      Rot      Max-DP    RMS-DP
  5   -463.12477202  -0.0007451287  0.000753  0.000753  4.767002  0.038212
               *** Restarting incremental Fock matrix formation ***
  6   -463.12481548  -0.0000434551  0.000427  0.001816 41.287258  0.252280
  7   -463.12480743   0.0000080481  0.000670  0.001439  3.593666  0.020069
  8   -463.12482119  -0.0000137642  0.000123  0.000345 18.635685  0.139902
  9   -463.12482178  -0.0000005846  0.000118  0.000192 11.453294  0.071003
 10   -463.12482236  -0.0000005823  0.000076  0.000132 17.344536  0.120259
 11   -463.12482067   0.0000016925  0.000330  0.001081 44.635535  0.370071
 12   -463.12473214   0.0000885297  0.001265  0.001000 33.097560  0.285149
 13   -463.12481875  -0.0000866110  0.000250  0.000090  8.113035  0.062158
 14   -463.12481864   0.0000001120  0.000138  0.000122  7.909192  0.068041
 15   -463.12481793   0.0000007029  0.000415  0.000140 17.537244  0.097978
 16   -463.12481896  -0.0000010297  0.000619  0.003233 1505.216916  8.776709
 17   -463.12430197   0.0005169895  0.001856  0.003051 1418.698042  8.258133
 18   -463.12481668  -0.0005147080  0.000367  0.000055  4.174870  0.039198
 19   -463.12481740  -0.0000007232  0.000674  0.010240 9636.845513 87.553624

 WARNING: the maximum gradient error descreased on average only by a factor   0.8
          during the last 20 iterations

                      *** Initiating the TRAH-SCF procedure ***

              ***Rediagonalizing the Fockian in SOSCF/NRSCF***

TRAH GRIDX
----------

General Integration Accuracy     IntAcc      ... 3.067
Radial Grid Type                 RadialGrid  ... OptM3 with GC (2021)
Angular Grid (max. ang.)         AngularGrid ... 1 (Lebedev-50)
Angular grid pruning method      GridPruning ... 4 (adaptive)
Weight generation scheme         WeightScheme... Becke
Basis function cutoff            BFCut       ... 1.0000e-10
Integration weight cutoff        WCut        ... 1.0000e-14
Angular grids for H and He will be reduced by one unit
Partially contracted basis set               ... on
Rotationally invariant grid construction     ... off

Total number of grid points                  ...     7169
Total number of batches                      ...      124
Average number of points per batch           ...       57
Average number of grid points per atom       ...      326


TRAH GRID
---------

General Integration Accuracy     IntAcc      ... 3.467
Radial Grid Type                 RadialGrid  ... OptM3 with GC (2021)
Angular Grid (max. ang.)         AngularGrid ... 1 (Lebedev-50)
Angular grid pruning method      GridPruning ... 4 (adaptive)
Weight generation scheme         WeightScheme... Becke
Basis function cutoff            BFCut       ... 1.0000e-10
Integration weight cutoff        WCut        ... 1.0000e-14
Angular grids for H and He will be reduced by one unit
Partially contracted basis set               ... off
Rotationally invariant grid construction     ... off

Total number of grid points                  ...    15753
Total number of batches                      ...      256
Average number of points per batch           ...       61
Average number of grid points per atom       ...      716

 --------------------------------------------------------------------------------------------
   Iter.        energy            ||Error||_2        Shift      TRadius  Mac/Mic        Rej.
 --------------------------------------------------------------------------------------------
    0       -463.115884124207     2.628713e-01                     0.400 (TRAH MAcro)   No
    0     dE    -5.870073e-03     3.551588e-01    -1.1717e-02      0.045 (TRAH MIcro)
    0     dE    -8.768346e-03     6.310246e-02    -1.7443e-02      0.073 (TRAH MIcro)
    0     dE    -8.904517e-03     1.163720e-02    -1.7712e-02      0.074 (TRAH MIcro)
    0     dE    -8.909654e-03     4.700872e-03    -1.7721e-02      0.074 (TRAH MIcro)
    1       -463.124816098574     9.951581e-03                     0.480 (TRAH MAcro)   No
    1     dE    -2.066224e-06     1.749633e-02    -4.1324e-06      0.000 (TRAH MIcro)
    1     dE    -6.924480e-06     2.961866e-03    -1.3849e-05      0.002 (TRAH MIcro)
    1     dE    -7.711900e-06     1.097809e-03    -1.5424e-05      0.002 (TRAH MIcro)
    1     dE    -7.806510e-06     2.084805e-04    -1.5613e-05      0.002 (TRAH MIcro)
    2       -463.124823914810     2.209910e-04                           (NR   MAcro)
    2     dE    -3.159845e-09     8.889375e-05                           (NR   MIcro)
    2     dE    -3.715256e-09     2.768929e-05                           (NR   MIcro)
    2     dE    -3.775335e-09     1.251450e-05                           (NR   MIcro)
    2     dE    -3.787344e-09     2.550301e-06                           (NR   MIcro)
    3       -463.124823919730     2.623361e-06                           (NR   MAcro)

               *****************************************************
               *                     SUCCESS                       *
               *           SCF CONVERGED AFTER  36 CYCLES          *
               *****************************************************


------------------------------------------------------------------------------
                          SCF STABILITY ANALYSIS                              
------------------------------------------------------------------------------


---------------
TD-DFT XC SETUP
---------------

DFT calculation                         ... on
Name of the grid file                   ... Acenaphthene_spectra.grid.tmp
Exchange functional (SCF)               ... B88
Exchange functional (TD-DFT)            ... B88
   X-Alpha parameter    XAlpha (SCF)    ...  0.666667
   X-Alpha parameter    XAlpha (TD-DFT) ...  0.666667
   Becke's b parameter  XBeta (SCF)     ...  0.004200
   Becke's b parameter  XBeta (TD-DFT)  ...  0.004200
Correlation functional (SCF)            ... LYP
Correlation functional (TD-DFT)         ... LYP
 LDA part of GGA corr.  LDAOpt (SCF)    ... VWN-5
 LDA part of GGA corr.  LDAOpt (TD-DFT) ... VWN-5
Hybrid DFT                              ... on
   Exchange mixing (SCF)                ...  0.200
   Exchange mixing (TD-DFT)             ...  0.200
   GGA exch. scaling(SCF)               ...  0.720
   GGA exch. scaling (TD-DFT)           ...  0.720
   GGA corr. scaling (SCF)              ...  0.810
   GGA corr. scaling (TD-DFT)           ...  0.810

Electron density on the grid   ... found on disk
Building xc-kernel on the grid ... done
                    *** TD-DFT CALCULATION INITIALIZED ***

                       ****Iteration    0****

   Memory handling for direct AO based CIS:
   Memory per vector needed      ...     3 MB
   Memory needed                 ...    18 MB
   Memory available              ...  5000 MB
   Number of vectors per batch   ...  1595
   Number of batches             ...     1
   Time for densities:     0.009
   Time for XC-Integration:     2.397
   Time for K (COSX):    18.257
   Time for Sigma-Completion:     0.043
   Lowest Energy          :     0.099332987718
   Maximum Energy change  :     0.146368767929 (vector 2)
   Maximum residual norm  :     0.006144852299

                       ****Iteration    1****
   Time for densities:     0.012
   Time for XC-Integration:     1.554
   Time for K (COSX):    17.084
   Time for Sigma-Completion:     0.030
   Lowest Energy          :     0.070895808254
   Maximum Energy change  :     0.028437179465 (vector 0)
   Maximum residual norm  :     0.000948927934

                       ****Iteration    2****
   Time for densities:     0.010
   Time for XC-Integration:     1.538
   Time for K (COSX):    17.188
   Time for Sigma-Completion:     0.018
   Lowest Energy          :     0.067198659761
   Maximum Energy change  :     0.014743860403 (vector 2)
   Maximum residual norm  :     0.000538648119

                       ****Iteration    3****
   Time for densities:     0.009
   Time for XC-Integration:     1.705
   Time for K (COSX):    17.052
   Time for Sigma-Completion:     0.020
   Lowest Energy          :     0.067082749929
   Maximum Energy change  :     0.000850652901 (vector 1)
   Maximum residual norm  :     0.000012293746

                       ****Iteration    4****
   Time for densities:     0.011
   Time for XC-Integration:     1.601
   Time for K (COSX):    17.318
   Time for Sigma-Completion:     0.025
   Lowest Energy          :     0.067080077990
   Maximum Energy change  :     0.000017050897 (vector 1)
   Maximum residual norm  :     0.000000347344

      *** CONVERGENCE OF RESIDUAL NORM REACHED ***

----------------------------- 
SCF STABILITY ANALYSIS RESULT 
----------------------------- 

RHF/RKS->UHF/UKS - triplet - external

   Root    Eigenvalue (au) 
     0       0.067080 
     1       0.116005 
     2       0.125151 

Stability Analysis indicates a stable HF/KS wave function.


Total time for performing the stability analysis:    96.379sec

Old exchange energy                            =    -13.171495625 Eh
New exchange energy                            =    -13.171535537 Eh
Exchange energy change after final integration =     -0.000039912 Eh
Total energy after final integration           =   -463.124863832 Eh
Final COS-X integration done in                =     6.195 sec

----------------
TOTAL SCF ENERGY
----------------

Total Energy       :         -463.12486383 Eh          -12602.26823 eV

Components:
Nuclear Repulsion  :          635.11654797 Eh           17282.39989 eV
Electronic Energy  :        -1098.24141180 Eh          -29884.66812 eV
One Electron Energy:        -1883.63498043 Eh          -51256.31364 eV
Two Electron Energy:          785.39356863 Eh           21371.64552 eV
Max COSX asymmetry :            0.00013215 Eh               0.00360 eV

Virial components:
Potential Energy   :         -924.41499677 Eh          -25154.61090 eV
Kinetic Energy     :          461.29013294 Eh           12552.34267 eV
Virial Ratio       :            2.00397739


DFT components:
N(Alpha)           :       41.000040232210 electrons
N(Beta)            :       41.000040232210 electrons
N(Total)           :       82.000080464419 electrons
E(X)               :      -52.294819879585 Eh       
E(C)               :       -3.235176104096 Eh       
E(XC)              :      -55.529995983681 Eh       
DFET-embed. en.    :        0.000000000000 Eh       

---------------
SCF CONVERGENCE
---------------

  Last Energy change         ...   -4.9206e-09  Tolerance :   1.0000e-06
  Last Orbital Gradient      ...    2.6234e-06  Tolerance :   5.0000e-05
  Last Orbital Rotation      ...    5.0985e-05

             **** THE GBW FILE WAS UPDATED (Acenaphthene_spectra.gbw) ****
             **** DENSITY Acenaphthene_spectra.scfp WAS UPDATED ****
             **** ENERGY FILE WAS UPDATED (Acenaphthene_spectra.en.tmp) ****
             **** THE GBW FILE WAS UPDATED (Acenaphthene_spectra.gbw) ****
             **** DENSITY Acenaphthene_spectra.scfp WAS UPDATED ****
----------------
ORBITAL ENERGIES
----------------

  NO   OCC          E(Eh)            E(eV) 
   0   2.0000     -10.179497      -276.9982 
   1   2.0000     -10.178918      -276.9824 
   2   2.0000     -10.178862      -276.9809 
   3   2.0000     -10.178681      -276.9760 
   4   2.0000     -10.178563      -276.9728 
   5   2.0000     -10.174212      -276.8544 
   6   2.0000     -10.174208      -276.8543 
   7   2.0000     -10.170659      -276.7577 
   8   2.0000     -10.170643      -276.7573 
   9   2.0000     -10.170592      -276.7559 
  10   2.0000     -10.170585      -276.7557 
  11   2.0000     -10.167179      -276.6630 
  12   2.0000      -0.888561       -24.1790 
  13   2.0000      -0.821301       -22.3487 
  14   2.0000      -0.816993       -22.2315 
  15   2.0000      -0.741539       -20.1783 
  16   2.0000      -0.729496       -19.8506 
  17   2.0000      -0.718984       -19.5646 
  18   2.0000      -0.648081       -17.6352 
  19   2.0000      -0.616390       -16.7728 
  20   2.0000      -0.595564       -16.2061 
  21   2.0000      -0.574925       -15.6445 
  22   2.0000      -0.510855       -13.9011 
  23   2.0000      -0.500099       -13.6084 
  24   2.0000      -0.482903       -13.1404 
  25   2.0000      -0.467111       -12.7107 
  26   2.0000      -0.449095       -12.2205 
  27   2.0000      -0.433019       -11.7830 
  28   2.0000      -0.414815       -11.2877 
  29   2.0000      -0.406748       -11.0682 
  30   2.0000      -0.395468       -10.7612 
  31   2.0000      -0.383272       -10.4294 
  32   2.0000      -0.378474       -10.2988 
  33   2.0000      -0.358653        -9.7594 
  34   2.0000      -0.354808        -9.6548 
  35   2.0000      -0.332624        -9.0512 
  36   2.0000      -0.331109        -9.0099 
  37   2.0000      -0.318482        -8.6663 
  38   2.0000      -0.279386        -7.6025 
  39   2.0000      -0.245173        -6.6715 
  40   2.0000      -0.209627        -5.7042 
  41   0.0000      -0.040016        -1.0889 
  42   0.0000      -0.018274        -0.4973 
  43   0.0000       0.005828         0.1586 
  44   0.0000       0.015084         0.4105 
  45   0.0000       0.015357         0.4179 
  46   0.0000       0.015491         0.4215 
  47   0.0000       0.032330         0.8797 
  48   0.0000       0.032463         0.8834 
  49   0.0000       0.042155         1.1471 
  50   0.0000       0.045578         1.2402 
  51   0.0000       0.057068         1.5529 
  52   0.0000       0.057431         1.5628 
  53   0.0000       0.061444         1.6720 
  54   0.0000       0.072750         1.9796 
  55   0.0000       0.083054         2.2600 
  56   0.0000       0.083092         2.2611 
  57   0.0000       0.088664         2.4127 
  58   0.0000       0.091703         2.4954 
  59   0.0000       0.094932         2.5832 
  60   0.0000       0.101988         2.7752 
  61   0.0000       0.117687         3.2024 
  62   0.0000       0.121826         3.3151 
  63   0.0000       0.127072         3.4578 
  64   0.0000       0.131542         3.5794 
  65   0.0000       0.142189         3.8691 
  66   0.0000       0.143031         3.8921 
  67   0.0000       0.145142         3.9495 
  68   0.0000       0.146439         3.9848 
  69   0.0000       0.151015         4.1093 
  70   0.0000       0.155262         4.2249 
  71   0.0000       0.160563         4.3691 
  72   0.0000       0.171471         4.6660 
  73   0.0000       0.174350         4.7443 
  74   0.0000       0.177472         4.8293 
  75   0.0000       0.182895         4.9768 
  76   0.0000       0.185976         5.0607 
  77   0.0000       0.187469         5.1013 
  78   0.0000       0.188993         5.1428 
  79   0.0000       0.192632         5.2418 
  80   0.0000       0.199637         5.4324 
  81   0.0000       0.202357         5.5064 
  82   0.0000       0.210753         5.7349 
  83   0.0000       0.215417         5.8618 
  84   0.0000       0.220128         5.9900 
  85   0.0000       0.226504         6.1635 
  86   0.0000       0.230906         6.2833 
  87   0.0000       0.232865         6.3366 
  88   0.0000       0.240630         6.5479 
  89   0.0000       0.241094         6.5605 
  90   0.0000       0.252715         6.8767 
  91   0.0000       0.255760         6.9596 
  92   0.0000       0.258255         7.0275 
  93   0.0000       0.265229         7.2173 
  94   0.0000       0.269777         7.3410 
  95   0.0000       0.275509         7.4970 
  96   0.0000       0.277446         7.5497 
  97   0.0000       0.280759         7.6398 
  98   0.0000       0.286074         7.7845 
  99   0.0000       0.288106         7.8398 
 100   0.0000       0.292181         7.9506 
 101   0.0000       0.309537         8.4229 
 102   0.0000       0.319515         8.6944 
 103   0.0000       0.324405         8.8275 
 104   0.0000       0.327529         8.9125 
 105   0.0000       0.337538         9.1849 
 106   0.0000       0.350448         9.5362 
 107   0.0000       0.362801         9.8723 
 108   0.0000       0.375464        10.2169 
 109   0.0000       0.375964        10.2305 
 110   0.0000       0.388611        10.5746 
 111   0.0000       0.413036        11.2393 
 112   0.0000       0.421176        11.4608 
 113   0.0000       0.425603        11.5813 
 114   0.0000       0.450835        12.2678 
 115   0.0000       0.479355        13.0439 
 116   0.0000       0.480759        13.0821 
 117   0.0000       0.503848        13.7104 
 118   0.0000       0.511082        13.9073 
 119   0.0000       0.517744        14.0885 
 120   0.0000       0.524093        14.2613 
 121   0.0000       0.544487        14.8162 
 122   0.0000       0.556533        15.1440 
 123   0.0000       0.557200        15.1622 
 124   0.0000       0.563993        15.3470 
 125   0.0000       0.564807        15.3692 
 126   0.0000       0.576272        15.6811 
 127   0.0000       0.588120        16.0036 
 128   0.0000       0.588460        16.0128 
 129   0.0000       0.594840        16.1864 
 130   0.0000       0.603779        16.4297 
 131   0.0000       0.610632        16.6161 
 132   0.0000       0.635217        17.2851 
 133   0.0000       0.635633        17.2965 
 134   0.0000       0.639633        17.4053 
 135   0.0000       0.650545        17.7022 
 136   0.0000       0.653050        17.7704 
 137   0.0000       0.654341        17.8055 
 138   0.0000       0.660458        17.9720 
 139   0.0000       0.669296        18.2125 
 140   0.0000       0.671148        18.2629 
 141   0.0000       0.692150        18.8344 
 142   0.0000       0.698180        18.9984 
 143   0.0000       0.704882        19.1808 
 144   0.0000       0.707316        19.2470 
 145   0.0000       0.722648        19.6642 
 146   0.0000       0.736560        20.0428 
 147   0.0000       0.750458        20.4210 
 148   0.0000       0.750758        20.4292 
 149   0.0000       0.754820        20.5397 
 150   0.0000       0.765076        20.8188 
 151   0.0000       0.766190        20.8491 
 152   0.0000       0.800571        21.7846 
 153   0.0000       0.827553        22.5189 
 154   0.0000       0.833570        22.6826 
 155   0.0000       0.847133        23.0517 
 156   0.0000       0.853524        23.2256 
 157   0.0000       0.865393        23.5485 
 158   0.0000       0.891922        24.2704 
 159   0.0000       0.907420        24.6922 
 160   0.0000       0.914267        24.8785 
 161   0.0000       0.941861        25.6293 
 162   0.0000       0.958061        26.0702 
 163   0.0000       0.961679        26.1686 
 164   0.0000       0.964350        26.2413 
 165   0.0000       0.984419        26.7874 
 166   0.0000       0.984576        26.7917 
 167   0.0000       1.001804        27.2605 
 168   0.0000       1.001908        27.2633 
 169   0.0000       1.019682        27.7470 
 170   0.0000       1.021663        27.8009 
 171   0.0000       1.057135        28.7661 
 172   0.0000       1.067357        29.0443 
 173   0.0000       1.078847        29.3569 
 174   0.0000       1.098513        29.8921 
 175   0.0000       1.100256        29.9395 
 176   0.0000       1.104062        30.0430 
 177   0.0000       1.136529        30.9265 
 178   0.0000       1.138338        30.9757 
 179   0.0000       1.140124        31.0244 
 180   0.0000       1.153930        31.4000 
 181   0.0000       1.248548        33.9747 
 182   0.0000       1.305632        35.5281 
 183   0.0000       1.334811        36.3221 
 184   0.0000       1.343718        36.5644 
 185   0.0000       1.343753        36.5654 
 186   0.0000       1.384709        37.6798 
 187   0.0000       1.412864        38.4460 
 188   0.0000       1.471753        40.0484 
 189   0.0000       1.471765        40.0488 
 190   0.0000       1.474522        40.1238 
 191   0.0000       1.502552        40.8865 
 192   0.0000       1.511192        41.1216 
 193   0.0000       1.519675        41.3524 
 194   0.0000       1.556295        42.3490 
 195   0.0000       1.558521        42.4095 
 196   0.0000       1.561022        42.4776 
 197   0.0000       1.567286        42.6480 
 198   0.0000       1.568756        42.6880 
 199   0.0000       1.588157        43.2160 
 200   0.0000       1.612113        43.8678 
 201   0.0000       1.626751        44.2661 
 202   0.0000       1.630811        44.3766 
 203   0.0000       1.650825        44.9212 
 204   0.0000       1.662222        45.2314 
 205   0.0000       1.669813        45.4379 
 206   0.0000       1.674263        45.5590 
 207   0.0000       1.702091        46.3163 
 208   0.0000       1.706369        46.4327 
 209   0.0000       1.753532        47.7160 
 210   0.0000       1.755266        47.7632 
 211   0.0000       1.755639        47.7734 
 212   0.0000       1.784068        48.5470 
 213   0.0000       1.801459        49.0202 
 214   0.0000       1.802657        49.0528 
 215   0.0000       1.811858        49.3032 
 216   0.0000       1.843995        50.1777 
 217   0.0000       1.859392        50.5966 
 218   0.0000       1.899933        51.6998 
 219   0.0000       1.900698        51.7206 
 220   0.0000       1.911901        52.0255 
 221   0.0000       1.912350        52.0377 
 222   0.0000       1.912396        52.0389 
 223   0.0000       1.939600        52.7792 
 224   0.0000       1.951570        53.1049 
 225   0.0000       1.964476        53.4561 
 226   0.0000       1.965218        53.4763 
 227   0.0000       1.972513        53.6748 
 228   0.0000       2.018020        54.9131 
 229   0.0000       2.025876        55.1269 
 230   0.0000       2.034020        55.3485 
 231   0.0000       2.049745        55.7764 
 232   0.0000       2.061687        56.1014 
 233   0.0000       2.087613        56.8068 
 234   0.0000       2.101128        57.1746 
 235   0.0000       2.154881        58.6373 
 236   0.0000       2.159307        58.7577 
 237   0.0000       2.197715        59.8029 
 238   0.0000       2.199771        59.8588 
 239   0.0000       2.200486        59.8783 
 240   0.0000       2.234001        60.7902 
 241   0.0000       2.277809        61.9823 
 242   0.0000       2.298141        62.5356 
 243   0.0000       2.320539        63.1451 
 244   0.0000       2.382914        64.8424 
 245   0.0000       2.386502        64.9400 
 246   0.0000       2.427553        66.0571 
 247   0.0000       2.431946        66.1766 
 248   0.0000       2.441548        66.4379 
 249   0.0000       2.472770        67.2875 
 250   0.0000       2.486299        67.6556 
 251   0.0000       2.515889        68.4608 
 252   0.0000       2.543269        69.2059 
 253   0.0000       2.586014        70.3690 
 254   0.0000       2.587998        70.4230 
 255   0.0000       2.617288        71.2200 
 256   0.0000       2.629219        71.5447 
 257   0.0000       2.632560        71.6356 
 258   0.0000       2.639252        71.8177 
 259   0.0000       2.659363        72.3650 
 260   0.0000       2.693879        73.3042 
 261   0.0000       2.712541        73.8120 
 262   0.0000       2.724102        74.1266 
 263   0.0000       2.724538        74.1385 
 264   0.0000       2.745148        74.6993 
 265   0.0000       2.755296        74.9754 
 266   0.0000       2.780980        75.6743 
 267   0.0000       2.787664        75.8562 
 268   0.0000       2.798433        76.1492 
 269   0.0000       2.808441        76.4216 
 270   0.0000       2.810400        76.4749 
 271   0.0000       2.813994        76.5727 
 272   0.0000       2.825306        76.8805 
 273   0.0000       2.831287        77.0432 
 274   0.0000       2.871279        78.1315 
 275   0.0000       2.879371        78.3517 
 276   0.0000       2.880848        78.3919 
 277   0.0000       2.913281        79.2744 
 278   0.0000       2.927020        79.6483 
 279   0.0000       2.943792        80.1046 
 280   0.0000       2.981222        81.1232 
 281   0.0000       3.002723        81.7082 
 282   0.0000       3.085037        83.9481 
 283   0.0000       3.089292        84.0639 
 284   0.0000       3.128757        85.1378 
 285   0.0000       3.209250        87.3281 
 286   0.0000       3.241013        88.1925 
 287   0.0000       3.269397        88.9648 
 288   0.0000       3.271220        89.0144 
 289   0.0000       3.396410        92.4210 
 290   0.0000       3.401903        92.5705 
 291   0.0000       3.416753        92.9746 
 292   0.0000       3.430304        93.3433 
 293   0.0000       3.502473        95.3071 
 294   0.0000       3.516306        95.6835 
 295   0.0000       3.562791        96.9485 
 296   0.0000       3.598170        97.9112 
 297   0.0000       3.610342        98.2424 
 298   0.0000       3.711320       100.9901 
 299   0.0000       3.751676       102.0883 
 300   0.0000       3.828483       104.1783 
 301   0.0000       3.954000       107.5938 
 302   0.0000       4.029841       109.6575 
 303   0.0000       4.043354       110.0253 
 304   0.0000       4.119142       112.0876 
 305   0.0000       4.141615       112.6991 
 306   0.0000       4.216967       114.7495 
 307   0.0000       4.236469       115.2802 
 308   0.0000       4.364481       118.7636 
 309   0.0000       4.514361       122.8420 
 310   0.0000       4.814947       131.0214 
 311   0.0000       4.862649       132.3194 
 312   0.0000      23.494042       639.3054 
 313   0.0000      23.823257       648.2638 
 314   0.0000      23.898190       650.3028 
 315   0.0000      23.906700       650.5344 
 316   0.0000      23.929826       651.1637 
 317   0.0000      23.963826       652.0889 
 318   0.0000      24.008654       653.3087 
 319   0.0000      24.066362       654.8790 
 320   0.0000      24.126383       656.5122 
 321   0.0000      24.131935       656.6633 
 322   0.0000      24.187640       658.1791 
 323   0.0000      24.193089       658.3274 

                    ********************************
                    * MULLIKEN POPULATION ANALYSIS *
                    ********************************

-----------------------
MULLIKEN ATOMIC CHARGES
-----------------------
   0 C :   -0.313819
   1 C :   -0.311769
   2 C :    0.406207
   3 C :   -1.521860
   4 C :    0.360414
   5 C :   -0.471616
   6 C :    2.794456
   7 C :   -0.470323
   8 C :    0.359057
   9 C :   -1.517794
  10 C :    0.402815
  11 C :   -1.155343
  12 H :    0.176317
  13 H :    0.176343
  14 H :    0.176320
  15 H :    0.176347
  16 H :    0.121721
  17 H :    0.123397
  18 H :    0.122014
  19 H :    0.122023
  20 H :    0.123401
  21 H :    0.121692
Sum of atomic charges:    0.0000000

--------------------------------
MULLIKEN REDUCED ORBITAL CHARGES
--------------------------------
  0 C s       :     3.284827  s :     3.284827
      pz      :     1.116198  p :     2.972991
      px      :     0.907193
      py      :     0.949601
      dz2     :     0.008538  d :     0.056000
      dxz     :     0.009781
      dyz     :     0.012837
      dx2y2   :     0.014381
      dxy     :     0.010464
  1 C s       :     3.282980  s :     3.282980
      pz      :     1.116197  p :     2.972789
      px      :     0.907139
      py      :     0.949453
      dz2     :     0.008538  d :     0.056001
      dxz     :     0.009781
      dyz     :     0.012837
      dx2y2   :     0.014381
      dxy     :     0.010464
  2 C s       :     2.671234  s :     2.671234
      pz      :     0.945706  p :     2.848090
      px      :     1.026325
      py      :     0.876059
      dz2     :     0.004392  d :     0.074469
      dxz     :     0.012324
      dyz     :     0.009249
      dx2y2   :     0.022811
      dxy     :     0.025693
  3 C s       :     4.491279  s :     4.491279
      pz      :     1.021463  p :     2.972733
      px      :     1.004131
      py      :     0.947140
      dz2     :     0.003896  d :     0.057848
      dxz     :     0.005864
      dyz     :     0.008160
      dx2y2   :     0.018722
      dxy     :     0.021206
  4 C s       :     2.829305  s :     2.829305
      pz      :     0.976136  p :     2.751623
      px      :     0.945873
      py      :     0.829614
      dz2     :     0.003869  d :     0.058658
      dxz     :     0.005209
      dyz     :     0.010074
      dx2y2   :     0.019359
      dxy     :     0.020147
  5 C s       :     3.752234  s :     3.752234
      pz      :     1.029080  p :     2.661852
      px      :     0.667446
      py      :     0.965326
      dz2     :     0.003918  d :     0.057529
      dxz     :     0.010651
      dyz     :     0.003511
      dx2y2   :     0.022745
      dxy     :     0.016703
  6 C s       :     0.399745  s :     0.399745
      pz      :     0.916965  p :     2.730227
      px      :     0.022400
      py      :     1.790862
      dz2     :     0.004351  d :     0.075572
      dxz     :     0.012537
      dyz     :     0.009044
      dx2y2   :     0.026826
      dxy     :     0.022814
  7 C s       :     3.750591  s :     3.750591
      pz      :     1.029080  p :     2.662202
      px      :     0.667844
      py      :     0.965279
      dz2     :     0.003918  d :     0.057529
      dxz     :     0.010651
      dyz     :     0.003511
      dx2y2   :     0.022745
      dxy     :     0.016703
  8 C s       :     2.830592  s :     2.830592
      pz      :     0.976137  p :     2.751693
      px      :     0.945914
      py      :     0.829642
      dz2     :     0.003869  d :     0.058658
      dxz     :     0.005209
      dyz     :     0.010074
      dx2y2   :     0.019359
      dxy     :     0.020147
  9 C s       :     4.487431  s :     4.487431
      pz      :     1.021463  p :     2.972515
      px      :     1.004228
      py      :     0.946824
      dz2     :     0.003896  d :     0.057848
      dxz     :     0.005864
      dyz     :     0.008160
      dx2y2   :     0.018722
      dxy     :     0.021206
 10 C s       :     2.675031  s :     2.675031
      pz      :     0.945705  p :     2.847685
      px      :     1.026751
      py      :     0.875229
      dz2     :     0.004392  d :     0.074469
      dxz     :     0.012324
      dyz     :     0.009249
      dx2y2   :     0.022811
      dxy     :     0.025693
 11 C s       :     4.040127  s :     4.040127
      pz      :     0.931031  p :     3.039409
      px      :     1.430276
      py      :     0.678102
      dz2     :     0.004825  d :     0.075806
      dxz     :     0.009887
      dyz     :     0.010913
      dx2y2   :     0.023367
      dxy     :     0.026814
 12 H s       :     0.800813  s :     0.800813
      pz      :     0.010322  p :     0.022870
      px      :     0.005755
      py      :     0.006793
 13 H s       :     0.800787  s :     0.800787
      pz      :     0.010328  p :     0.022870
      px      :     0.005752
      py      :     0.006790
 14 H s       :     0.800810  s :     0.800810
      pz      :     0.010322  p :     0.022870
      px      :     0.005755
      py      :     0.006793
 15 H s       :     0.800783  s :     0.800783
      pz      :     0.010328  p :     0.022870
      px      :     0.005752
      py      :     0.006790
 16 H s       :     0.852890  s :     0.852890
      pz      :     0.006411  p :     0.025389
      px      :     0.011989
      py      :     0.006989
 17 H s       :     0.851543  s :     0.851543
      pz      :     0.006124  p :     0.025060
      px      :     0.012388
      py      :     0.006549
 18 H s       :     0.852662  s :     0.852662
      pz      :     0.006367  p :     0.025324
      px      :     0.004386
      py      :     0.014570
 19 H s       :     0.852652  s :     0.852652
      pz      :     0.006367  p :     0.025324
      px      :     0.004387
      py      :     0.014570
 20 H s       :     0.851539  s :     0.851539
      pz      :     0.006124  p :     0.025060
      px      :     0.012388
      py      :     0.006549
 21 H s       :     0.852919  s :     0.852919
      pz      :     0.006411  p :     0.025389
      px      :     0.011989
      py      :     0.006989


                     *******************************
                     * LOEWDIN POPULATION ANALYSIS *
                     *******************************

----------------------
LOEWDIN ATOMIC CHARGES
----------------------
   0 C :   -0.060883
   1 C :   -0.060883
   2 C :   -0.070142
   3 C :   -0.070635
   4 C :   -0.051585
   5 C :   -0.054856
   6 C :   -0.074322
   7 C :   -0.054856
   8 C :   -0.051586
   9 C :   -0.070634
  10 C :   -0.070142
  11 C :   -0.072989
  12 H :    0.077322
  13 H :    0.077335
  14 H :    0.077322
  15 H :    0.077335
  16 H :    0.076767
  17 H :    0.072252
  18 H :    0.078080
  19 H :    0.078080
  20 H :    0.072252
  21 H :    0.076767

-------------------------------
LOEWDIN REDUCED ORBITAL CHARGES
-------------------------------
  0 C s       :     2.780379  s :     2.780379
      pz      :     1.084071  p :     3.159577
      px      :     1.036734
      py      :     1.038772
      dz2     :     0.017587  d :     0.120927
      dxz     :     0.018705
      dyz     :     0.025986
      dx2y2   :     0.036471
      dxy     :     0.022179
  1 C s       :     2.780379  s :     2.780379
      pz      :     1.084071  p :     3.159577
      px      :     1.036735
      py      :     1.038771
      dz2     :     0.017587  d :     0.120927
      dxz     :     0.018705
      dyz     :     0.025986
      dx2y2   :     0.036471
      dxy     :     0.022179
  2 C s       :     2.775666  s :     2.775666
      pz      :     0.929070  p :     3.125515
      px      :     1.120627
      py      :     1.075818
      dz2     :     0.010964  d :     0.168962
      dxz     :     0.024349
      dyz     :     0.017239
      dx2y2   :     0.055275
      dxy     :     0.061135
  3 C s       :     2.783454  s :     2.783454
      pz      :     0.993779  p :     3.154893
      px      :     1.072497
      py      :     1.088617
      dz2     :     0.008581  d :     0.132288
      dxz     :     0.010502
      dyz     :     0.016099
      dx2y2   :     0.047258
      dxy     :     0.049848
  4 C s       :     2.792630  s :     2.792630
      pz      :     0.955684  p :     3.126626
      px      :     1.076576
      py      :     1.094366
      dz2     :     0.008362  d :     0.132328
      dxz     :     0.009336
      dyz     :     0.020184
      dx2y2   :     0.046726
      dxy     :     0.047721
  5 C s       :     2.783802  s :     2.783802
      pz      :     0.981102  p :     3.140262
      px      :     1.098474
      py      :     1.060686
      dz2     :     0.008552  d :     0.130791
      dxz     :     0.021081
      dyz     :     0.005531
      dx2y2   :     0.052490
      dxy     :     0.043138
  6 C s       :     2.758938  s :     2.758938
      pz      :     0.940676  p :     3.143469
      px      :     1.103657
      py      :     1.099136
      dz2     :     0.011185  d :     0.171914
      dxz     :     0.023845
      dyz     :     0.017808
      dx2y2   :     0.062646
      dxy     :     0.056429
  7 C s       :     2.783802  s :     2.783802
      pz      :     0.981102  p :     3.140262
      px      :     1.098475
      py      :     1.060686
      dz2     :     0.008552  d :     0.130791
      dxz     :     0.021081
      dyz     :     0.005531
      dx2y2   :     0.052490
      dxy     :     0.043138
  8 C s       :     2.792631  s :     2.792631
      pz      :     0.955684  p :     3.126627
      px      :     1.076576
      py      :     1.094366
      dz2     :     0.008362  d :     0.132328
      dxz     :     0.009336
      dyz     :     0.020184
      dx2y2   :     0.046726
      dxy     :     0.047721
  9 C s       :     2.783453  s :     2.783453
      pz      :     0.993779  p :     3.154892
      px      :     1.072497
      py      :     1.088617
      dz2     :     0.008581  d :     0.132288
      dxz     :     0.010502
      dyz     :     0.016099
      dx2y2   :     0.047258
      dxy     :     0.049848
 10 C s       :     2.775666  s :     2.775666
      pz      :     0.929070  p :     3.125515
      px      :     1.120627
      py      :     1.075818
      dz2     :     0.010964  d :     0.168962
      dxz     :     0.024349
      dyz     :     0.017239
      dx2y2   :     0.055275
      dxy     :     0.061135
 11 C s       :     2.747066  s :     2.747066
      pz      :     0.956467  p :     3.149359
      px      :     1.090917
      py      :     1.101974
      dz2     :     0.012413  d :     0.176564
      dxz     :     0.019293
      dyz     :     0.021024
      dx2y2   :     0.056278
      dxy     :     0.067556
 12 H s       :     0.852273  s :     0.852273
      pz      :     0.032411  p :     0.070405
      px      :     0.017644
      py      :     0.020350
 13 H s       :     0.852260  s :     0.852260
      pz      :     0.032429  p :     0.070405
      px      :     0.017636
      py      :     0.020340
 14 H s       :     0.852273  s :     0.852273
      pz      :     0.032410  p :     0.070405
      px      :     0.017644
      py      :     0.020350
 15 H s       :     0.852260  s :     0.852260
      pz      :     0.032430  p :     0.070405
      px      :     0.017636
      py      :     0.020340
 16 H s       :     0.852857  s :     0.852857
      pz      :     0.015601  p :     0.070376
      px      :     0.034492
      py      :     0.020284
 17 H s       :     0.858010  s :     0.858010
      pz      :     0.014802  p :     0.069738
      px      :     0.036128
      py      :     0.018808
 18 H s       :     0.851402  s :     0.851402
      pz      :     0.015584  p :     0.070518
      px      :     0.012099
      py      :     0.042835
 19 H s       :     0.851402  s :     0.851402
      pz      :     0.015584  p :     0.070518
      px      :     0.012099
      py      :     0.042835
 20 H s       :     0.858009  s :     0.858009
      pz      :     0.014802  p :     0.069738
      px      :     0.036128
      py      :     0.018808
 21 H s       :     0.852857  s :     0.852857
      pz      :     0.015601  p :     0.070376
      px      :     0.034492
      py      :     0.020284


                      *****************************
                      * MAYER POPULATION ANALYSIS *
                      *****************************

  NA   - Mulliken gross atomic population
  ZA   - Total nuclear charge
  QA   - Mulliken gross atomic charge
  VA   - Mayer's total valence
  BVA  - Mayer's bonded valence
  FA   - Mayer's free valence

  ATOM       NA         ZA         QA         VA         BVA        FA
  0 C      6.3138     6.0000    -0.3138     2.5962     2.5962    -0.0000
  1 C      6.3118     6.0000    -0.3118     2.5943     2.5943     0.0000
  2 C      5.5938     6.0000     0.4062    -0.3884    -0.3884    -0.0000
  3 C      7.5219     6.0000    -1.5219     2.5748     2.5748     0.0000
  4 C      5.6396     6.0000     0.3604     2.9102     2.9102    -0.0000
  5 C      6.4716     6.0000    -0.4716     2.6851     2.6851     0.0000
  6 C      3.2055     6.0000     2.7945    -6.2282    -6.2282     0.0000
  7 C      6.4703     6.0000    -0.4703     2.6872     2.6872     0.0000
  8 C      5.6409     6.0000     0.3591     2.9135     2.9135     0.0000
  9 C      7.5178     6.0000    -1.5178     2.5830     2.5830    -0.0000
 10 C      5.5972     6.0000     0.4028    -0.3786    -0.3786     0.0000
 11 C      7.1553     6.0000    -1.1553    12.7011    12.7011     0.0000
 12 H      0.8237     1.0000     0.1763     0.9147     0.9147    -0.0000
 13 H      0.8237     1.0000     0.1763     0.9147     0.9147    -0.0000
 14 H      0.8237     1.0000     0.1763     0.9147     0.9147     0.0000
 15 H      0.8237     1.0000     0.1763     0.9147     0.9147     0.0000
 16 H      0.8783     1.0000     0.1217     0.9626     0.9626     0.0000
 17 H      0.8766     1.0000     0.1234     0.9589     0.9589    -0.0000
 18 H      0.8780     1.0000     0.1220     0.9605     0.9605    -0.0000
 19 H      0.8780     1.0000     0.1220     0.9605     0.9605     0.0000
 20 H      0.8766     1.0000     0.1234     0.9589     0.9589     0.0000
 21 H      0.8783     1.0000     0.1217     0.9626     0.9626    -0.0000

  Mayer bond orders larger than 0.100000
B(  0-C ,  1-C ) :   0.3223 B(  0-C ,  2-C ) :  -0.1964 B(  0-C ,  3-C ) :  -0.1187 
B(  0-C ,  6-C ) :   0.3180 B(  0-C ,  8-C ) :   0.1501 B(  0-C ,  9-C ) :  -0.2914 
B(  0-C , 10-C ) :   1.1654 B(  0-C , 11-C ) :  -0.5104 B(  0-C , 12-H ) :   1.0418 
B(  0-C , 13-H ) :   1.0410 B(  0-C , 21-H ) :  -0.1114 B(  1-C ,  2-C ) :   1.1667 
B(  1-C ,  3-C ) :  -0.2947 B(  1-C ,  4-C ) :   0.1515 B(  1-C ,  5-C ) :  -0.1009 
B(  1-C ,  6-C ) :   0.3218 B(  1-C ,  9-C ) :  -0.1190 B(  1-C , 10-C ) :  -0.1992 
B(  1-C , 11-C ) :  -0.5112 B(  1-C , 14-H ) :   1.0416 B(  1-C , 15-H ) :   1.0407 
B(  1-C , 16-H ) :  -0.1118 B(  2-C ,  3-C ) :  -0.8741 B(  2-C ,  5-C ) :  -0.6491 
B(  2-C ,  6-C ) :  -2.0271 B(  2-C ,  7-C ) :   0.6574 B(  2-C ,  8-C ) :  -0.6525 
B(  2-C ,  9-C ) :   0.8260 B(  2-C , 10-C ) :   0.4973 B(  2-C , 11-C ) :   1.6795 
B(  2-C , 16-H ) :  -0.3893 B(  2-C , 17-H ) :  -0.1643 B(  2-C , 18-H ) :  -0.1100 
B(  3-C ,  4-C ) :   0.6502 B(  3-C ,  5-C ) :   0.8448 B(  3-C ,  6-C ) :  -1.5755 
B(  3-C , 10-C ) :   0.8328 B(  3-C , 11-C ) :   1.5814 B(  3-C , 16-H ) :   1.2875 
B(  3-C , 17-H ) :   0.1450 B(  4-C ,  5-C ) :   1.1700 B(  4-C ,  6-C ) :   0.4351 
B(  4-C ,  7-C ) :   0.1133 B(  4-C , 10-C ) :  -0.6553 B(  4-C , 11-C ) :   0.2649 
B(  4-C , 17-H ) :   0.8442 B(  5-C ,  6-C ) :  -0.3883 B(  5-C ,  7-C ) :  -1.5488 
B(  5-C ,  8-C ) :   0.1127 B(  5-C , 10-C ) :   0.6596 B(  5-C , 11-C ) :   1.6131 
B(  5-C , 17-H ) :   0.1348 B(  5-C , 18-H ) :   1.1467 B(  5-C , 19-H ) :  -0.2065 
B(  6-C ,  7-C ) :  -0.3842 B(  6-C ,  8-C ) :   0.4327 B(  6-C ,  9-C ) :  -1.5669 
B(  6-C , 10-C ) :  -2.0357 B(  6-C , 11-C ) :   1.5648 B(  6-C , 16-H ) :  -0.1302 
B(  6-C , 17-H ) :  -0.1916 B(  6-C , 18-H ) :  -0.3998 B(  6-C , 19-H ) :  -0.3998 
B(  6-C , 20-H ) :  -0.1913 B(  6-C , 21-H ) :  -0.1298 B(  7-C ,  8-C ) :   1.1720 
B(  7-C ,  9-C ) :   0.8387 B(  7-C , 10-C ) :  -0.6455 B(  7-C , 11-C ) :   1.6136 
B(  7-C , 18-H ) :  -0.2062 B(  7-C , 19-H ) :   1.1469 B(  7-C , 20-H ) :   0.1344 
B(  8-C ,  9-C ) :   0.6541 B(  8-C , 11-C ) :   0.2651 B(  8-C , 20-H ) :   0.8445 
B(  9-C , 10-C ) :  -0.8625 B(  9-C , 11-C ) :   1.5755 B(  9-C , 20-H ) :   0.1446 
B(  9-C , 21-H ) :   1.2859 B( 10-C , 11-C ) :   1.6805 B( 10-C , 19-H ) :  -0.1101 
B( 10-C , 20-H ) :  -0.1637 B( 10-C , 21-H ) :  -0.3875 B( 11-C , 16-H ) :   0.2858 
B( 11-C , 17-H ) :   0.1996 B( 11-C , 18-H ) :   0.4985 B( 11-C , 19-H ) :   0.4986 
B( 11-C , 20-H ) :   0.1992 B( 11-C , 21-H ) :   0.2848 

-------
TIMINGS
-------

Total SCF time: 0 days 0 hours 3 min 18 sec 

Total time                  ....     198.284 sec
Sum of individual times     ....     196.526 sec  ( 99.1%)
[...]
 761  123336.8     81.1     -0.05267   0.00005   0.17567  -0.00028
 762  123383.5     81.0      0.07499  -0.00000  -0.00033  -0.02251
 763  123483.7     81.0     -0.00489   0.00014   0.00002  -0.08948
 764  123576.2     80.9     -0.14722   0.00001   0.00225   0.00048
 765  123650.2     80.9      0.11180  -0.00014  -0.15255  -0.00002
 766  123691.8     80.8      0.00516   0.00005   0.00003  -0.29744
 767  123857.9     80.7      0.04411  -0.00024   0.00003   0.64301
 768  123908.5     80.7     -0.00763  -0.06679  -0.00040   0.00262
 769  123942.1     80.7      0.00183   0.00009  -0.00004  -0.04999
 770  123990.1     80.7      0.00626  -0.18087   0.00052  -0.00127
 771  123997.1     80.6     -0.00272   0.00039  -0.00016   0.02706
 772  124105.6     80.6      0.00580   0.00020  -0.00002  -0.04221
 773  124257.1     80.5     -0.00506   0.00015   0.00000   0.13698
 774  124313.1     80.4     -0.03213  -0.11150   0.00016  -0.00018
 775  124327.2     80.4      0.00799   0.00111   0.02539   0.00012
 776  124362.6     80.4     -0.01754  -0.00003  -0.00010   0.22839
 777  124385.3     80.4      0.00042  -0.00005  -0.00003  -0.00780
 778  124411.6     80.4     -0.01463   0.00006  -0.07640  -0.00018
 779  124454.8     80.4      0.00914   0.00008  -0.02845  -0.00003
 780  124494.8     80.3     -0.01202   0.00004  -0.00006  -0.00044
 781  124532.8     80.3     -0.01663   0.00001  -0.00012  -0.00065
 782  124609.3     80.3     -0.04386   0.00010  -0.00018  -0.22661
 783  124616.7     80.2      0.06763   0.01283  -0.08053   0.00054
 784  124620.1     80.2     -0.02473   0.00119   0.00041   0.01084
 785  124624.9     80.2      0.10581   0.19935   0.00525   0.00115
 786  124687.4     80.2     -0.05743   0.00005  -0.00000  -0.24891
 787  124836.6     80.1      0.04578  -0.00291   0.00024   0.00091
 788  124847.8     80.1     -0.02505   0.00005  -0.00013  -0.00654
 789  124901.2     80.1     -0.94121   0.14970   0.00048  -0.01259
 790  124916.3     80.1      0.96536  -0.00281   0.00000  -0.66275
 791  124960.7     80.0      0.00464  -0.00015   0.00001  -0.14866
 792  124972.1     80.0     -0.00982  -0.00003  -0.00020  -0.00270
 793  124982.8     80.0     -0.11741  -0.00006  -0.00001  -0.55067
 794  125048.8     80.0     -0.01974  -0.00007  -0.00004  -0.39363
 795  125164.5     79.9      0.02236   0.00028   0.13090  -0.00007
 796  125185.4     79.9      0.00070   0.00003   0.00004   0.01263
 797  125365.7     79.8     -0.01324   0.18942   0.00046  -0.00009
 798  125368.3     79.8      0.00089   0.00128  -0.00004  -0.00057
 799  125449.8     79.7     -0.02208   0.11270   0.00066   0.00073
 800  125469.7     79.7     -0.00720   0.00293  -0.10692   0.00000
 801  125494.4     79.7      0.08312  -0.00055   0.00001  -0.22318
 802  125564.7     79.6     -0.00117  -0.00004  -0.00012  -0.00925
 803  125630.9     79.6     -0.00302  -0.00003   0.00002   0.00224
 804  125710.5     79.5      0.00519  -0.00022  -0.00005  -0.00016
 805  125727.6     79.5      0.03548   0.10234  -0.00053  -0.00051
 806  125775.4     79.5     -0.04514  -0.16459  -0.00059   0.00028
 807  125929.9     79.4     -0.00917   0.00003  -0.00027   0.04285
 808  125950.8     79.4     -0.26168   0.00039  -0.00004  -0.54786
 809  125974.1     79.4      0.33530   0.07895   0.00002   0.00475
 810  126004.1     79.4      0.34047  -0.00155  -0.05014   0.00023
 811  126004.3     79.4     -0.32857  -0.00005   0.00771   0.00058
 812  126045.0     79.3     -0.00647   0.21425  -0.00209   0.00034
 813  126192.9     79.2     -0.01672  -0.00004  -0.00030  -0.00004
 814  126281.4     79.2      0.01945   0.00447  -0.02332   0.00001
 815  126289.9     79.2     -0.01305   0.00209  -0.00008  -0.00178
 816  126294.5     79.2     -0.02058   0.25052   0.00094   0.00006
 817  126420.1     79.1     -0.03491   0.00026   0.00002   0.28112
 818  126459.3     79.1      0.00832  -0.14214  -0.00019   0.00006
 819  126511.7     79.0      0.00035   0.00228  -0.03685   0.00003
 820  126581.8     79.0      0.08162   0.23942   0.00128  -0.00110
 821  126650.2     79.0      0.00982   0.00003   0.00006   0.00368
 822  126727.3     78.9      0.01170  -0.00047   0.06205   0.00002
 823  126753.8     78.9     -0.00373   0.01834   0.00652  -0.00011
 824  126777.8     78.9     -0.02805   0.00023   0.20865   0.00004
 825  126796.5     78.9      0.00576   0.00001  -0.00005   0.13386
 826  127017.8     78.7     -0.02020  -0.00002  -0.00042  -0.15389
 827  127019.0     78.7     -0.03096  -0.00011   0.00012  -0.49823
 828  127056.9     78.7     -0.02773  -0.00011  -0.00006  -0.05618
 829  127149.7     78.6      0.00589  -0.00005  -0.00006  -0.00240
 830  127161.0     78.6     -0.00159   0.00068  -0.03796   0.00007
 831  127209.7     78.6      0.15746  -0.12192   0.00016   0.00003
 832  127231.1     78.6      0.02299  -0.00142  -0.11214   0.00001
 833  127245.3     78.6     -0.24681   0.00086   0.00001  -0.05392
 834  127303.9     78.6      0.10890  -0.07008  -0.00123  -0.00090
 835  127344.7     78.5      0.00952  -0.00003   0.00022  -0.00485
 836  127386.4     78.5     -0.00458   0.00000  -0.00026  -0.00504
 837  127478.9     78.4     -0.02205   0.00009   0.00000   0.22682
 838  127514.8     78.4     -0.00524   0.00001  -0.00018   0.00363
 839  127567.3     78.4     -0.00233  -0.00008   0.00001   0.02508
 840  127755.9     78.3      0.00812  -0.00002   0.00012   0.02799
 841  127766.0     78.3      0.13405   0.00018  -0.00002  -0.45061
 842  127781.0     78.3     -0.10301   0.00568  -0.00020  -0.00169
 843  127921.2     78.2     -0.04644  -0.00001   0.00047   0.00125
 844  127971.7     78.1     -0.01936  -0.00019  -0.00557   0.03518
 845  127974.2     78.1      0.04948   0.00210  -0.27573  -0.00071
 846  127980.8     78.1     -0.03949   0.00017   0.09774  -0.00013
 847  128099.8     78.1     -0.00238   0.07179   0.00101   0.00019
 848  128195.4     78.0     -0.76882  -0.00004   0.00365   0.00459
 849  128200.3     78.0      0.79787  -0.00342   0.15514  -0.00013
 850  128298.2     77.9     -0.27446   0.00122  -0.11150  -0.00035
 851  128300.2     77.9      0.20804  -0.00004   0.00225  -0.00215
 852  128312.3     77.9     -0.02551  -0.00070  -0.00021   0.16730
 853  128390.5     77.9     -0.00729  -0.35564  -0.01191   0.00034
 854  128449.7     77.9     -0.01127   0.00065   0.00005   0.14625
 855  128472.6     77.8      0.01483   0.00908  -0.20519   0.00003
 856  128491.3     77.8      0.00100  -0.00009  -0.00018   0.00427
 857  128697.5     77.7     -1.01812   0.00852  -0.00006   0.20622
 858  128700.6     77.7      1.03950   0.19954  -0.00227  -0.00899
 859  128741.0     77.7      0.01250   0.00192  -0.06177   0.00008
 860  128807.6     77.6     -0.07001   0.00137  -0.01726  -0.00001
 861  128810.5     77.6      0.04160  -0.00003   0.00048   0.00034
 862  128840.0     77.6     -0.00450   0.00027  -0.00002  -0.00759
 863  128913.9     77.6     -0.05759   0.01335  -0.36310   0.00003
 864  128918.2     77.6     -0.03413   0.11228   0.02491   0.00017
 865  129057.6     77.5     -0.03715  -0.00029  -0.00004  -0.07757
 866  129072.8     77.5      0.07256  -0.08482  -0.00610   0.00078
 867  129140.1     77.4      0.04534   0.00001  -0.00052  -0.00551
 868  129189.7     77.4      0.00008  -0.00337  -0.03964  -0.00013
 869  129236.8     77.4     -0.00256  -0.00006  -0.00001  -0.22966
 870  129267.1     77.4      0.01605  -0.00854  -0.23150   0.00004
 871  129349.2     77.3      0.01161  -0.00006  -0.00045  -0.00045
 872  129386.8     77.3     -0.00076   0.00009   0.00005   0.00492
 873  129408.4     77.3     -0.00402  -0.21839   0.00210   0.00026
 874  129481.6     77.2      0.07343  -0.27844   0.00593  -0.00064
 875  129517.0     77.2      0.03796   0.00001   0.00002  -0.28057
 876  129569.1     77.2      0.00105   0.00113  -0.13725  -0.00006
 877  129679.7     77.1     -0.06517   0.00014  -0.00003  -0.63799
 878  129702.0     77.1      0.05539  -0.00821  -0.00609  -0.00116
 879  129731.8     77.1      0.07171  -0.03316   0.00053  -0.00068
 880  129803.2     77.0      0.00234  -0.00010   0.00024   0.02937
 881  129827.0     77.0     -0.07526  -0.00016   0.00002  -0.34626
 882  129865.3     77.0      0.04504  -0.15825   0.00031   0.00108
 883  129920.6     77.0     -0.27995  -0.00126  -0.00000  -0.04874
 884  129981.7     76.9      0.00051   0.00002   0.00003   0.01363
 885  130038.5     76.9      0.01958  -0.03184  -0.00950   0.00050
 886  130084.3     76.9     -0.05310   0.00009  -0.00023  -0.00023
 887  130140.5     76.8      0.07383  -0.06310   0.00456  -0.00076
 888  130229.1     76.8     -0.09994   0.00128  -0.00077   0.22926
 889  130240.9     76.8     -0.00843   0.00338  -0.09646  -0.00208
 890  130248.9     76.8      0.19031  -0.03912   0.12138   0.00895
 891  130251.6     76.8      0.12588   0.03211   0.17082  -0.00705
 892  130265.9     76.8     -0.20235  -0.00109  -0.00037  -0.21756
 893  130295.8     76.7      0.01686  -0.00005  -0.00035  -0.01851
 894  130389.4     76.7     -0.07072  -0.00075  -0.25368   0.00007
 895  130396.8     76.7     -0.02510   0.06826   0.00370  -0.00037
 896  130514.8     76.6      0.01352  -0.00001  -0.00031   0.00377
 897  130574.6     76.6      0.04265   0.00003   0.00669  -0.51547
 898  130575.7     76.6      0.04537  -0.00023  -0.21526  -0.01612
 899  130724.4     76.5      0.01179   0.00039   0.04491  -0.00000
 900  130810.3     76.4      0.01597   0.00000  -0.00009   0.00036
 901  130976.3     76.3      0.02035   0.00013  -0.00000  -0.42423
 902  131093.3     76.3      0.28102  -0.00001  -0.00195   0.00163
 903  131096.6     76.3     -0.27813  -0.00013  -0.13408  -0.00000
 904  131150.0     76.2     -0.02155   0.00672  -0.00063  -0.00017
 905  131217.7     76.2     -0.03825  -0.00054  -0.17454  -0.00003
 906  131228.1     76.2      0.10290   0.00000  -0.00242   0.00747
 907  131236.6     76.2      0.00726  -0.01602   0.00037   0.00015
 908  131324.1     76.1      0.00238  -0.00001  -0.00059   0.00655
 909  131359.3     76.1     -0.01676  -0.00005  -0.00004  -0.25116
 910  131363.9     76.1      0.00904   0.00028   0.06651  -0.00004
 911  131552.1     76.0      0.05208  -0.00025  -0.00003   0.08917
 912  131558.9     76.0      0.07145  -0.00045   0.00024   0.08751
 913  131566.9     76.0      0.03088  -0.00108   0.03964  -0.00152
 914  131573.1     76.0     -0.13672  -0.00988  -0.00645  -0.00607
 915  131667.8     75.9     -0.01719   0.00008  -0.00010   0.00872
 916  131694.8     75.9      0.00577   0.05363   0.00031   0.00026
 917  131821.9     75.9     -0.00745  -0.03680  -0.00015  -0.00003
 918  131839.3     75.8     -0.00117   0.00002   0.00002  -0.00151
 919  131973.6     75.8     -0.00834   0.00010  -0.00003  -0.03223
 920  131987.7     75.8     -0.02611   0.14318   0.00111   0.00021
 921  132047.3     75.7      0.00196   0.00000   0.00008   0.00333
 922  132183.4     75.7      0.00153  -0.01826   0.00249   0.00015
 923  132232.8     75.6      0.02366   0.04185  -0.00421   0.00037
 924  132266.7     75.6     -0.01079  -0.00260   0.23435   0.00000
 925  132307.5     75.6     -0.00647  -0.00001   0.00063  -0.00035
 926  132314.6     75.6     -0.00636  -0.00006   0.00009   0.03244
 927  132455.9     75.5      0.00929   0.00018  -0.00000  -0.19391
 928  132536.1     75.5     -0.01735   0.00170  -0.24218  -0.00008
 929  132600.4     75.4      0.00432   0.00003  -0.00004   0.38024
 930  132648.6     75.4      0.02088   0.00000   0.00025  -0.01025
 931  132820.3     75.3     -0.00276   0.00003  -0.00004  -0.00766
 932  132865.4     75.3      0.91190  -0.21653  -0.00126  -0.00405
 933  132894.1     75.2     -0.86996   0.00206   0.00000  -0.41184
 934  132977.9     75.2     -0.06617  -0.00026  -0.00000   0.24843
 935  133063.7     75.2     -0.00347  -0.00000  -0.00006  -0.00499
 936  133076.1     75.1     -0.10179  -0.00002   0.00001  -0.40025
 937  133144.4     75.1      0.27438  -0.01338  -0.00075  -0.00222
 938  133199.6     75.1     -0.42899  -0.00070   0.00002   0.56000
 939  133348.9     75.0      0.00490  -0.00001  -0.00001  -0.01625
 940  133351.9     75.0     -0.00006   0.00002  -0.00002   0.00856
 941  133406.9     75.0      0.18576   0.00076  -0.00001   0.49448
 942  133477.5     74.9      0.00414   0.00002   0.00011   0.00078
 943  133572.9     74.9     -0.00111   0.00002  -0.00018   0.00076
 944  133597.5     74.9     -0.01728   0.00156   0.12112   0.00006
 945  133618.2     74.8      0.07126   0.15760   0.00024  -0.00147
 946  133659.3     74.8     -0.00073   0.00009   0.00037   0.00337
 947  133680.8     74.8      0.00124   0.00019   0.04743   0.00040
 948  133684.4     74.8     -0.02280   0.00047  -0.00016   0.08384
 949  133741.1     74.8      0.04787   0.00054   0.00017   0.31191
 950  133744.7     74.8      0.03001   0.00037  -0.00032   0.20065
 951  133835.0     74.7     -0.01229  -0.00004   0.00014  -0.00360
 952  133867.5     74.7      0.08192   0.00064   0.00000   0.24840
 953  133964.0     74.6     -0.30826   0.12887   0.00172  -0.01073
 954  134002.9     74.6      0.10677   0.00164  -0.00009   0.73932
 955  134007.6     74.6      0.00347   0.00090  -0.08163  -0.00077
 956  134040.4     74.6      0.00039   0.00003   0.00015   0.01058
 957  134117.1     74.6     -0.03925   0.00052   0.00006   0.28162
 958  134132.2     74.6      0.00014  -0.00062  -0.08599  -0.00003
 959  134181.5     74.5     -0.04609  -0.00008  -0.00216   0.00229
 960  134189.7     74.5      0.04320   0.00243   0.12423   0.00007
 961  134261.3     74.5     -0.00702   0.00041  -0.00002  -0.01769
 962  134267.1     74.5     -0.04397   0.00088   0.00007  -0.07832
 963  134273.7     74.5      0.14309   0.12741  -0.00142  -0.00012
 964  134344.0     74.4      0.07008   0.23205  -0.00071  -0.00070
 965  134417.1     74.4      0.01252  -0.00004  -0.00002  -0.24479
 966  134463.6     74.4     -0.02546   0.00019  -0.00004   0.42984
 967  134547.0     74.3      0.06005  -0.00175   0.31840   0.00011
 968  134618.0     74.3      0.03239   0.00021   0.00008  -0.32977
 969  134674.5     74.3     -0.00203   0.00002  -0.00018  -0.00629
 970  134699.2     74.2      0.10347  -0.01295   0.05623   0.00003
 971  134731.3     74.2     -0.13395   0.00005  -0.00046  -0.00254
 972  134810.0     74.2      0.02172  -0.27455  -0.00479   0.00014
 973  134875.8     74.1      0.01373  -0.00002   0.00017  -0.00636
 974  134882.0     74.1     -0.00760   0.00001  -0.00001  -0.13134
 975  135150.7     74.0      0.00406   0.00001   0.00000  -0.04440
 976  135232.5     73.9     -0.00099  -0.00729   0.01093   0.00007
 977  135255.0     73.9      0.00079  -0.00002   0.00012   0.00195
 978  135396.2     73.9     -0.01683  -0.13660   0.00078  -0.00116
 979  135407.7     73.9     -0.06906   0.00050  -0.00003  -0.37316
 980  135548.7     73.8     -0.00617  -0.00004   0.00009  -0.00342
 981  135606.8     73.7      0.03656  -0.00012  -0.12478   0.00002
 982  135614.3     73.7     -0.01119   0.00006   0.00006   0.00550
 983  135792.2     73.6     -0.07429   0.00001  -0.00002  -1.05921
 984  135865.8     73.6      0.08558   0.00011  -0.00001   0.39461
 985  135927.6     73.6     -0.04747   0.00002  -0.00022   0.00449
 986  135943.0     73.6     -0.00329  -0.00000  -0.00010  -0.01327
 987  135979.9     73.5      0.32737  -0.00035  -0.00003  -0.63319
 988  136051.8     73.5     -0.14897  -0.03057  -0.00565   0.00228
 989  136137.8     73.5     -0.06479  -0.00059   0.00024   0.05893
 990  136148.4     73.4     -0.02690   0.06212  -0.01357  -0.00032
 991  136172.2     73.4     -0.00105  -0.00997  -0.07185   0.00022
 992  136220.3     73.4     -0.01394  -0.00104   0.05199  -0.00005
 993  136276.4     73.4      0.00397   0.00001   0.00010   0.00679
 994  136384.2     73.3     -0.00271  -0.00014   0.00001   0.02879
 995  136406.2     73.3     -2.39470   0.11583  -0.00034  -0.05025
 996  136408.8     73.3      2.33327  -0.01159   0.00003  -0.50000
 997  136579.7     73.2      0.01351  -0.36144   0.00095  -0.00083
 998  136634.8     73.2     -0.00597  -0.00001  -0.00012   0.00198
 999  136731.4     73.1      0.02441   0.00157  -0.00001  -0.25771
 1000  136827.8     73.1      0.03641   0.00002   0.00001   0.59772

Total run time:     7233.491 sec

           *** ORCA-CIS/TD-DFT FINISHED WITHOUT ERROR ***

Maximum memory used throughout the entire CIS-calculation: 4376.0 MB

-----------------------
CIS/TD-DFT TOTAL ENERGY
-----------------------

    E(SCF)  =   -463.124863832 Eh
    DE(CIS) =      0.160455924 Eh (Root  1)
    ----------------------------- ---------
    E(tot)  =   -462.964407908 Eh



-------------------------------------------------------------------------------
                          DFT DISPERSION CORRECTION                            
                                                                               
                                 DFTD4 V2.5                                    
-------------------------------------------------------------------------------
The B3LYP functional is recognized
Active option DFTDOPT                   ...         5   

Starting D4
-------------------------   ----------------
Dispersion correction           -0.045573408
-------------------------   ----------------


-------------------------   --------------------
FINAL SINGLE POINT ENERGY      -463.009981316455
-------------------------   --------------------


                            ***************************************
                            *     ORCA property calculations      *
                            ***************************************

                                    ---------------------
                                    Active property flags
                                    ---------------------
   (+) Dipole Moment


------------------------------------------------------------------------------
                       ORCA ELECTRIC PROPERTIES CALCULATION
------------------------------------------------------------------------------

Dipole Moment Calculation                       ... on
Quadrupole Moment Calculation                   ... off
Polarizability Calculation                      ... off
GBWName                                         ... Acenaphthene_spectra.gbw
Electron density                                ... Acenaphthene_spectra.scfp
The origin for moment calculation is the CENTER OF MASS  = (-0.000000,  0.013857 -0.000131)

-------------
DIPOLE MOMENT
-------------
                                X             Y             Z
Electronic contribution:     -0.00000       3.19793      -0.00002
Nuclear contribution   :      0.00000      -3.58097       0.00002
                        -----------------------------------------
Total Dipole Moment    :     -0.00000      -0.38304       0.00000
                        -----------------------------------------
Magnitude (a.u.)       :      0.38304
Magnitude (Debye)      :      0.97361



--------------------
Rotational spectrum 
--------------------
 
Rotational constants in cm-1:     0.047030     0.039847     0.021743 
Rotational constants in MHz :  1409.916390  1194.572145   651.842145 

 Dipole components along the rotational axes: 
x,y,z [a.u.] :    -0.000001     0.383040    -0.000001 
x,y,z [Debye]:    -0.000002     0.973610    -0.000002 

 

Timings for individual modules:

Sum of individual times         ...     7432.451 sec (= 123.874 min)
GTO integral calculation        ...        0.442 sec (=   0.007 min)   0.0 %
SCF iterations                  ...      198.396 sec (=   3.307 min)   2.7 %
CIS module                      ...     7233.613 sec (= 120.560 min)  97.3 %
                             ****ORCA TERMINATED NORMALLY****
TOTAL RUN TIME: 0 days 2 hours 3 minutes 53 seconds 3 msec
