
                                 *****************
                                 * O   R   C   A *
                                 *****************

                                            #,                                       
                                            ###                                      
                                            ####                                     
                                            #####                                    
                                            ######                                   
                                           ########,                                 
                                     ,,################,,,,,                         
                               ,,#################################,,                 
                          ,,##########################################,,             
                       ,#########################################, ''#####,          
                    ,#############################################,,   '####,        
                  ,##################################################,,,,####,       
                ,###########''''           ''''###############################       
              ,#####''   ,,,,##########,,,,          '''####'''          '####       
            ,##' ,,,,###########################,,,                        '##       
           ' ,,###''''                  '''############,,,                           
         ,,##''                                '''############,,,,        ,,,,,,###''
      ,#''                                            '''#######################'''  
     '                                                          ''''####''''         
             ,#######,   #######,   ,#######,      ##                                
            ,#'     '#,  ##    ##  ,#'     '#,    #''#        ######   ,####,        
            ##       ##  ##   ,#'  ##            #'  '#       #        #'  '#        
            ##       ##  #######   ##           ,######,      #####,   #    #        
            '#,     ,#'  ##    ##  '#,     ,#' ,#      #,         ##   #,  ,#        
             '#######'   ##     ##  '#######'  #'      '#     #####' # '####'        



                  #######################################################
                  #                        -***-                        #
                  #          Department of theory and spectroscopy      #
                  #    Directorship and core code : Frank Neese         #
                  #        Max Planck Institute fuer Kohlenforschung    #
                  #                Kaiser Wilhelm Platz 1               #
                  #                 D-45470 Muelheim/Ruhr               #
                  #                      Germany                        #
                  #                                                     #
                  #                  All rights reserved                #
                  #                        -***-                        #
                  #######################################################



                         Program Version 5.0.4 -  RELEASE  -

 With contributions from (in alphabetic order):
   Daniel Aravena         : Magnetic Suceptibility
   Michael Atanasov       : Ab Initio Ligand Field Theory (pilot matlab implementation)
   Alexander A. Auer      : GIAO ZORA, VPT2 properties, NMR spectrum
   Ute Becker             : Parallelization
   Giovanni Bistoni       : ED, misc. LED, open-shell LED, HFLD
   Martin Brehm           : Molecular dynamics
   Dmytro Bykov           : SCF Hessian
   Vijay G. Chilkuri      : MRCI spin determinant printing, contributions to CSF-ICE
   Dipayan Datta          : RHF DLPNO-CCSD density
   Achintya Kumar Dutta   : EOM-CC, STEOM-CC
   Dmitry Ganyushin       : Spin-Orbit,Spin-Spin,Magnetic field MRCI
   Miquel Garcia          : C-PCM and meta-GGA Hessian, CC/C-PCM, Gaussian charge scheme
   Yang Guo               : DLPNO-NEVPT2, F12-NEVPT2, CIM, IAO-localization
   Andreas Hansen         : Spin unrestricted coupled pair/coupled cluster methods
   Benjamin Helmich-Paris : MC-RPA, TRAH-SCF, COSX integrals
   Lee Huntington         : MR-EOM, pCC
   Robert Izsak           : Overlap fitted RIJCOSX, COSX-SCS-MP3, EOM
   Marcus Kettner         : VPT2
   Christian Kollmar      : KDIIS, OOCD, Brueckner-CCSD(T), CCSD density, CASPT2, CASPT2-K
   Simone Kossmann        : Meta GGA functionals, TD-DFT gradient, OOMP2, MP2 Hessian
   Martin Krupicka        : Initial AUTO-CI
   Lucas Lang             : DCDCAS
   Marvin Lechner         : AUTO-CI (C++ implementation), FIC-MRCC
   Dagmar Lenk            : GEPOL surface, SMD
   Dimitrios Liakos       : Extrapolation schemes; Compound Job, initial MDCI parallelization
   Dimitrios Manganas     : Further ROCIS development; embedding schemes
   Dimitrios Pantazis     : SARC Basis sets
   Anastasios Papadopoulos: AUTO-CI, single reference methods and gradients
   Taras Petrenko         : DFT Hessian,TD-DFT gradient, ASA, ECA, R-Raman, ABS, FL, XAS/XES, NRVS
   Peter Pinski           : DLPNO-MP2, DLPNO-MP2 Gradient
   Christoph Reimann      : Effective Core Potentials
   Marius Retegan         : Local ZFS, SOC
   Christoph Riplinger    : Optimizer, TS searches, QM/MM, DLPNO-CCSD(T), (RO)-DLPNO pert. Triples
   Tobias Risthaus        : Range-separated hybrids, TD-DFT gradient, RPA, STAB
   Michael Roemelt        : Original ROCIS implementation
   Masaaki Saitow         : Open-shell DLPNO-CCSD energy and density
   Barbara Sandhoefer     : DKH picture change effects
   Avijit Sen             : IP-ROCIS
   Kantharuban Sivalingam : CASSCF convergence, NEVPT2, FIC-MRCI
   Bernardo de Souza      : ESD, SOC TD-DFT
   Georgi Stoychev        : AutoAux, RI-MP2 NMR, DLPNO-MP2 response
   Willem Van den Heuvel  : Paramagnetic NMR
   Boris Wezisla          : Elementary symmetry handling
   Frank Wennmohs         : Technical directorship


 We gratefully acknowledge several colleagues who have allowed us to
 interface, adapt or use parts of their codes:
   Stefan Grimme, W. Hujo, H. Kruse, P. Pracht,  : VdW corrections, initial TS optimization,
                  C. Bannwarth, S. Ehlert          DFT functionals, gCP, sTDA/sTD-DF
   Ed Valeev, F. Pavosevic, A. Kumar             : LibInt (2-el integral package), F12 methods
   Garnet Chan, S. Sharma, J. Yang, R. Olivares  : DMRG
   Ulf Ekstrom                                   : XCFun DFT Library
   Mihaly Kallay                                 : mrcc  (arbitrary order and MRCC methods)
   Jiri Pittner, Ondrej Demel                    : Mk-CCSD
   Frank Weinhold                                : gennbo (NPA and NBO analysis)
   Christopher J. Cramer and Donald G. Truhlar   : smd solvation model
   Lars Goerigk                                  : TD-DFT with DH, B97 family of functionals
   V. Asgeirsson, H. Jonsson                     : NEB implementation
   FAccTs GmbH                                   : IRC, NEB, NEB-TS, DLPNO-Multilevel, CI-OPT
                                                   MM, QMMM, 2- and 3-layer-ONIOM, Crystal-QMMM,
                                                   LR-CPCM, SF, NACMEs, symmetry and pop. for TD-DFT,
                                                   nearIR, NL-DFT gradient (VV10), updates on ESD,
                                                   ML-optimized integration grids
   S Lehtola, MJT Oliveira, MAL Marques          : LibXC Library
   Liviu Ungur et al                             : ANISO software


 Your calculation uses the libint2 library for the computation of 2-el integrals
 For citations please refer to: http://libint.valeyev.net

 Your ORCA version has been built with support for libXC version: 5.1.0
 For citations please refer to: https://tddft.org/programs/libxc/

 This ORCA versions uses:
   CBLAS   interface :  Fast vector & matrix operations
   LAPACKE interface :  Fast linear algebra routines
   Shared memory     :  Shared parallel matrices


Your calculation utilizes the atom-pairwise dispersion correction
based on tight binding partial charges (D4)
Cite in your paper:
E.Caldeweyher, C.Bannwarth, S.Grimme, J.Chem.Phys., (2017), 147, 034112.
E.Caldeweyher, S.Ehlert, A.Hansen, H.Neugebauer, S.Grimme, J.Chem.Phys., (2018), in progress.
   

================================================================================

----- Orbital basis set information -----
Your calculation utilizes the basis: 6-311+G**
   H, Li - Ne  : R. Krishnan, J. S. Binkley, R. Seeger and J. A. Pople, J. Chem. Phys. 72, 650 (1980).
   Na - Ar     : A. D. McLean and G. S. Chandler J. Chem. Phys. 72, 5639, (1980).
   K  - Ca     : J.-P. Blaudeau, M. P. McGrath, L. A. Curtiss and L. Radom, J. Chem. Phys. 107, 5016 (1997).
   Ga - Kr     : L. A. Curtiss, M. P. McGrath, J.-P. Blandeau, N. E. Davis, R. C. Binning and L. Radom, J. Chem. Phys. 103, 6104 (1995).
   Pol./Diff.
   H, Li - Cl  : T. Clark, J. Chandrasekhar and P. v. R. Schleyer, J. Comp. Chem. 4, 294 (1983).
   H - Ne      : M. J. Frisch, J. A. Pople and J. S. Binkley, J. Chem. Phys. 80, 3265 (1984).

----- AuxJ basis set information -----
Your calculation utilizes the auxiliary basis: def2/J
   F. Weigend, Phys. Chem. Chem. Phys. 8, 1057 (2006).

================================================================================
                                        WARNINGS
                       Please study these warnings very carefully!
================================================================================

INFO   : Checking CIS options ...

WARNING: CIS/ROCIS methods need fully converged wavefunctions
  ===> : Setting SCFConvForced true
         You can overwrite this default with %scf ConvForced false 


INFO   : the flag for use of the SHARK integral package has been found!

================================================================================
                                       INPUT FILE
================================================================================
NAME = Stone-Wales_defect_loss_six.inp
|  1> !b3lyp 6-311+g** d4 moread UKS
|  2> 
|  3> %scf
|  4>   stabperform true
|  5>   stabdtol 0.00001
|  6>   stabrtol 0.00001
|  7>   end
|  8>   
|  9> %maxcore 5000
| 10> %pal
| 11> nprocs 8
| 12> end
| 13> 
| 14> %tddft
| 15>   nroots 1000
| 16>   end
| 17>   
| 18> %moinp "Stone-Wales_defect_loss_six_orca6.0.gbw"
| 19> 
| 20> * xyz  0  1
| 21>   C   2.65275128826153     -3.24955068983803      0.00418934134358
| 22>   C   1.57844270590085     -3.88534056637248      0.00354696706783
| 23>   C   0.41737335801058     -3.07054036145796      0.00436462920641
| 24>   C   -0.92447754217501     -3.47781932767187      0.00394692809896
| 25>   C   -2.09149131133919     -2.73807175308125      0.00467104592535
| 26>   C   -2.21134318352183     -1.33360720930751      0.00609205792533
| 27>   C   -3.42486054893010     -0.58041961380450      0.00684199795270
| 28>   C   -3.63098631887311      0.63507500922426      0.00808511479930
| 29>   C   -2.65202655357254      1.67152404052433      0.00915088849991
| 30>   C   -2.63301406470047      3.08246606750079      0.01057920444461
| 31>   C   -1.42937957047094      3.79483591251306      0.01128813420040
| 32>   C   -0.18326398229195      3.13273762242878      0.01062042132775
| 33>   C   1.19633995555592      3.49299887139081      0.01098551327538
| 34>   C   2.16218604529862      2.72683906321597      0.01021345818978
| 35>   C   2.23913667397300      1.30096701170459      0.00877827509022
| 36>   C   3.41249008236421      0.52005936106537      0.00800696720759
| 37>   C   3.49962786445729     -0.85906382283723      0.00662040552058
| 38>   C   2.49741329088246     -1.83970552363432      0.00561562789710
| 39>   C   0.31505991763727     -0.52489452365824      0.00691590892736
| 40>   C   -1.40449655338480      1.00292493526044      0.00847397601264
| 41>   C   -1.14483292315536     -0.38463846184542      0.00706256162884
| 42>   C   1.01104245784290     -1.70118681060915      0.00573881886094
| 43>   H   -1.05270695010507     -4.55561780920364      0.00286107947275
| 44>   H   -3.02212330062401     -3.29239030681766      0.00409717820621
| 45>   H   -3.56808201617713      3.62917927613023      0.01114047552174
| 46>   H   -1.45884549390032      4.87761439737867      0.01238095638127
| 47>   H   4.34647864171629      1.06873634505758      0.00856581940498
| 48>   H   4.50646250920553     -1.26452489021571      0.00622046854151
| 49>   C   0.89407144042790      0.82218472334227      0.00828528683209
| 50>   C   -0.19734591831255      1.71745903361782      0.00919049223691
| 51>   *
| 52> 
| 53>                          ****END OF INPUT****
================================================================================

                       ****************************
                       * Single Point Calculation *
                       ****************************

---------------------------------
CARTESIAN COORDINATES (ANGSTROEM)
---------------------------------
  C      2.652751   -3.249551    0.004189
  C      1.578443   -3.885341    0.003547
  C      0.417373   -3.070540    0.004365
  C     -0.924478   -3.477819    0.003947
  C     -2.091491   -2.738072    0.004671
  C     -2.211343   -1.333607    0.006092
  C     -3.424861   -0.580420    0.006842
  C     -3.630986    0.635075    0.008085
  C     -2.652027    1.671524    0.009151
  C     -2.633014    3.082466    0.010579
  C     -1.429380    3.794836    0.011288
  C     -0.183264    3.132738    0.010620
  C      1.196340    3.492999    0.010986
  C      2.162186    2.726839    0.010213
  C      2.239137    1.300967    0.008778
  C      3.412490    0.520059    0.008007
  C      3.499628   -0.859064    0.006620
  C      2.497413   -1.839706    0.005616
  C      0.315060   -0.524895    0.006916
  C     -1.404497    1.002925    0.008474
  C     -1.144833   -0.384638    0.007063
  C      1.011042   -1.701187    0.005739
  H     -1.052707   -4.555618    0.002861
  H     -3.022123   -3.292390    0.004097
  H     -3.568082    3.629179    0.011140
  H     -1.458845    4.877614    0.012381
  H      4.346479    1.068736    0.008566
  H      4.506463   -1.264525    0.006220
  C      0.894071    0.822185    0.008285
  C     -0.197346    1.717459    0.009190

----------------------------
CARTESIAN COORDINATES (A.U.)
----------------------------
  NO LB      ZA    FRAG     MASS         X           Y           Z
   0 C     6.0000    0    12.011    5.012973   -6.140761    0.007917
   1 C     6.0000    0    12.011    2.982824   -7.342230    0.006703
   2 C     6.0000    0    12.011    0.788721   -5.802480    0.008248
   3 C     6.0000    0    12.011   -1.747009   -6.572126    0.007459
   4 C     6.0000    0    12.011   -3.952346   -5.174206    0.008827
   5 C     6.0000    0    12.011   -4.178833   -2.520152    0.011512
   6 C     6.0000    0    12.011   -6.472048   -1.096834    0.012930
   7 C     6.0000    0    12.011   -6.861570    1.200118    0.015279
   8 C     6.0000    0    12.011   -5.011604    3.158723    0.017293
   9 C     6.0000    0    12.011   -4.975675    5.825017    0.019992
  10 C     6.0000    0    12.011   -2.701136    7.171201    0.021331
  11 C     6.0000    0    12.011   -0.346319    5.920016    0.020070
  12 C     6.0000    0    12.011    2.260755    6.600811    0.020760
  13 C     6.0000    0    12.011    4.085939    5.152979    0.019301
  14 C     6.0000    0    12.011    4.231355    2.458471    0.016589
  15 C     6.0000    0    12.011    6.448672    0.982770    0.015131
  16 C     6.0000    0    12.011    6.613338   -1.623395    0.012511
  17 C     6.0000    0    12.011    4.719427   -3.476540    0.010612
  18 C     6.0000    0    12.011    0.595377   -0.991907    0.013069
  19 C     6.0000    0    12.011   -2.654114    1.895253    0.016013
  20 C     6.0000    0    12.011   -2.163421   -0.726861    0.013346
  21 C     6.0000    0    12.011    1.910593   -3.214777    0.010845
  22 H     1.0000    0     1.008   -1.989328   -8.608870    0.005407
  23 H     1.0000    0     1.008   -5.710985   -6.221716    0.007743
  24 H     1.0000    0     1.008   -6.742698    6.858155    0.021052
  25 H     1.0000    0     1.008   -2.756818    9.217355    0.023397
  26 H     1.0000    0     1.008    8.213654    2.019619    0.016187
  27 H     1.0000    0     1.008    8.515980   -2.389606    0.011755
  28 C     6.0000    0    12.011    1.689550    1.553704    0.015657
  29 C     6.0000    0    12.011   -0.372930    3.245527    0.017368

--------------------------------
INTERNAL COORDINATES (ANGSTROEM)
--------------------------------
 C      0   0   0     0.000000000000     0.00000000     0.00000000
 C      1   0   0     1.248346149865     0.00000000     0.00000000
 C      2   1   0     1.418443538922   114.32245880     0.00000000
 C      3   2   1     1.402298174114   128.05595715   179.99975259
 C      4   3   2     1.381719268114   130.74604733   180.00096879
 C      5   4   3     1.409569844051   127.24742917     0.00000000
 C      6   5   4     1.428256458966   126.70402692   180.00066169
 C      7   6   5     1.232848959519   131.45118493   179.99910828
 C      8   7   6     1.425689290285   127.00917562     0.00000000
 C      9   8   7     1.411070840996   137.40594183   179.99904124
 C     10   9   8     1.398644806362   121.39115268   180.00156950
 C     11  10   9     1.411091297782   121.39781249     0.00000000
 C     12  11  10     1.425866517638   137.38189351   180.00056040
 C     13  12  11     1.232826069161   126.94163270   179.99994111
 C     14  13  12     1.427947676312   131.51241784     0.00000000
 C     15  14  13     1.409459319997   126.73427108   180.00080097
 C     16  15  14     1.381873971098   127.26050240   179.99992695
 C     17  16  15     1.402174456480   130.76134077     0.00000000
 C      3   2   1     2.547702353223   127.36149252     0.00000000
 C      9   8   7     1.415399704373   105.17749923     0.00000000
 C     20   9   8     1.411651293324   128.78809809     0.00000000
 C     19   3   2     1.366768680557    28.31015631     0.00000000
 H      4   3   2     1.085400169024   113.66889751     0.00000000
 H      5   4   3     1.083210638713   116.85057072   179.99917281
 H     10   9   8     1.083165602017   119.54186414     0.00000000
 H     11  10   9     1.083179893735   119.06031840   179.99977368
 H     16  15  14     1.083227295668   115.92247033     0.00000000
 H     17  16  15     1.085409986583   115.55042266   179.99974571
 C     15  14  13     1.427737092457   106.50432849     0.00000000
 C     20   9   8     1.402773020437   121.18936271   179.99898598

---------------------------
INTERNAL COORDINATES (A.U.)
---------------------------
 C      0   0   0     0.000000000000     0.00000000     0.00000000
 C      1   0   0     2.359032343579     0.00000000     0.00000000
 C      2   1   0     2.680469824993   114.32245880     0.00000000
 C      3   2   1     2.649959507173   128.05595715   179.99975259
 C      4   3   2     2.611071010698   130.74604733   180.00096879
 C      5   4   3     2.663700971891   127.24742917     0.00000000
 C      6   5   4     2.699013556449   126.70402692   180.00066169
 C      7   6   5     2.329746897980   131.45118493   179.99910828
 C      8   7   6     2.694162310703   127.00917562     0.00000000
 C      9   8   7     2.666537445044   137.40594183   179.99904124
 C     10   9   8     2.643055642655   121.39115268   180.00156950
 C     11  10   9     2.666576102767   121.39781249     0.00000000
 C     12  11  10     2.694497221864   137.38189351   180.00056040
 C     13  12  11     2.329703641473   126.94163270   179.99994111
 C     14  13  12     2.698430041799   131.51241784     0.00000000
 C     15  14  13     2.663492111697   126.73427108   180.00080097
 C     16  15  14     2.611363356970   127.26050240   179.99992695
 C     17  16  15     2.649725714728   130.76134077     0.00000000
 C      3   2   1     4.814459718338   127.36149252     0.00000000
 C      9   8   7     2.674717811298   105.17749923     0.00000000
 C     20   9   8     2.667634340978   128.78809809     0.00000000
 C     19   3   2     2.582818494674    28.31015631     0.00000000
 H      4   3   2     2.051109065167   113.66889751     0.00000000
 H      5   4   3     2.046971452517   116.85057072   179.99917281
 H     10   9   8     2.046886345497   119.54186414     0.00000000
 H     11  10   9     2.046913352929   119.06031840   179.99977368
 H     16  15  14     2.047002929600   115.92247033     0.00000000
 H     17  16  15     2.051127617665   115.55042266   179.99974571
 C     15  14  13     2.698032095985   106.50432849     0.00000000
 C     20   9   8     2.650856836680   121.18936271   179.99898598

---------------------
BASIS SET INFORMATION
---------------------
There are 2 groups of distinct atoms

 Group   1 Type C   : 12s6p1d contracted to 5s4p1d pattern {63111/3111/1}
 Group   2 Type H   : 5s1p contracted to 3s1p pattern {311/1}

Atom   0C    basis set group =>   1
Atom   1C    basis set group =>   1
Atom   2C    basis set group =>   1
Atom   3C    basis set group =>   1
Atom   4C    basis set group =>   1
Atom   5C    basis set group =>   1
Atom   6C    basis set group =>   1
Atom   7C    basis set group =>   1
Atom   8C    basis set group =>   1
Atom   9C    basis set group =>   1
Atom  10C    basis set group =>   1
Atom  11C    basis set group =>   1
Atom  12C    basis set group =>   1
Atom  13C    basis set group =>   1
Atom  14C    basis set group =>   1
Atom  15C    basis set group =>   1
Atom  16C    basis set group =>   1
Atom  17C    basis set group =>   1
Atom  18C    basis set group =>   1
Atom  19C    basis set group =>   1
Atom  20C    basis set group =>   1
Atom  21C    basis set group =>   1
Atom  22H    basis set group =>   2
Atom  23H    basis set group =>   2
Atom  24H    basis set group =>   2
Atom  25H    basis set group =>   2
Atom  26H    basis set group =>   2
Atom  27H    basis set group =>   2
Atom  28C    basis set group =>   1
Atom  29C    basis set group =>   1
---------------------------------
AUXILIARY/J BASIS SET INFORMATION
---------------------------------
There are 2 groups of distinct atoms

 Group   1 Type C   : 12s5p4d2f1g contracted to 6s4p3d1f1g pattern {711111/2111/211/2/1}
 Group   2 Type H   : 5s2p1d contracted to 3s1p1d pattern {311/2/1}

Atom   0C    basis set group =>   1
Atom   1C    basis set group =>   1
Atom   2C    basis set group =>   1
Atom   3C    basis set group =>   1
Atom   4C    basis set group =>   1
Atom   5C    basis set group =>   1
Atom   6C    basis set group =>   1
Atom   7C    basis set group =>   1
Atom   8C    basis set group =>   1
Atom   9C    basis set group =>   1
Atom  10C    basis set group =>   1
Atom  11C    basis set group =>   1
Atom  12C    basis set group =>   1
Atom  13C    basis set group =>   1
Atom  14C    basis set group =>   1
Atom  15C    basis set group =>   1
Atom  16C    basis set group =>   1
Atom  17C    basis set group =>   1
Atom  18C    basis set group =>   1
Atom  19C    basis set group =>   1
Atom  20C    basis set group =>   1
Atom  21C    basis set group =>   1
Atom  22H    basis set group =>   2
Atom  23H    basis set group =>   2
Atom  24H    basis set group =>   2
Atom  25H    basis set group =>   2
Atom  26H    basis set group =>   2
Atom  27H    basis set group =>   2
Atom  28C    basis set group =>   1
Atom  29C    basis set group =>   1


           ************************************************************
           *        Program running with 8 parallel MPI-processes     *
           *              working on a common directory               *
           ************************************************************
------------------------------------------------------------------------------
                           ORCA GTO INTEGRAL CALCULATION
                           -- RI-GTO INTEGRALS CHOSEN --
------------------------------------------------------------------------------
------------------------------------------------------------------------------
                   ___                                                        
                  /   \      - P O W E R E D   B Y -                         
                 /     \                                                     
                 |  |  |   _    _      __       _____    __    __             
                 |  |  |  | |  | |    /  \     |  _  \  |  |  /  |          
                  \  \/   | |  | |   /    \    | | | |  |  | /  /          
                 / \  \   | |__| |  /  /\  \   | |_| |  |  |/  /          
                |  |  |   |  __  | /  /__\  \  |    /   |      \           
                |  |  |   | |  | | |   __   |  |    \   |  |\   \          
                \     /   | |  | | |  |  |  |  | |\  \  |  | \   \       
                 \___/    |_|  |_| |__|  |__|  |_| \__\ |__|  \__/        
                                                                              
                      - O R C A' S   B I G   F R I E N D -                    
                                      &                                       
                       - I N T E G R A L  F E E D E R -                       
                                                                              
 v1 FN, 2020, v2 2021                                                         
------------------------------------------------------------------------------


Reading SHARK input file Stone-Wales_defect_loss_six.SHARKINP.tmp ... ok
----------------------
SHARK INTEGRAL PACKAGE
----------------------

Number of atoms                             ...     30
Number of basis functions                   ...    564
Number of shells                            ...    264
Maximum angular momentum                    ...      2
Integral batch strategy                     ... SHARK/LIBINT Hybrid
RI-J (if used) integral strategy            ... SPLIT-RIJ (Revised 2003 algorithm where possible)
Printlevel                                  ...      1
Contraction scheme used                     ... SEGMENTED contraction
Coulomb Range Separation                    ... NOT USED
Exchange Range Separation                   ... NOT USED
Finite Nucleus Model                        ... NOT USED
Auxiliary Coulomb fitting basis             ... AVAILABLE
   # of basis functions in Aux-J            ...   1242
   # of shells in Aux-J                     ...    390
   Maximum angular momentum in Aux-J        ...      4
Auxiliary J/K fitting basis                 ... NOT available
Auxiliary Correlation fitting basis         ... NOT available
Auxiliary 'external' fitting basis          ... NOT available
Integral threshold                          ...     1.000000e-10
Primitive cut-off                           ...     1.000000e-11
Primitive pair pre-selection threshold      ...     1.000000e-11

Calculating pre-screening integrals         ... done (  0.0 sec) Dimension = 264
Organizing shell pair data                  ... done (  0.2 sec)
Shell pair information
Total number of shell pairs                 ...     34980
Shell pairs after pre-screening             ...     28150
Total number of primitive shell pairs       ...    121800
Primitive shell pairs kept                  ...     64398
          la=0 lb=0:   7317 shell pairs
          la=1 lb=0:  11595 shell pairs
          la=1 lb=1:   4599 shell pairs
          la=2 lb=0:   2442 shell pairs
          la=2 lb=1:   1970 shell pairs
          la=2 lb=2:    227 shell pairs

Calculating one electron integrals          ... done (  0.0 sec)
Calculating RI/J V-Matrix + Cholesky decomp.... done (  0.1 sec)
Calculating Nuclear repulsion               ... done (  0.0 sec) ENN=   1711.094311033202 Eh

SHARK setup successfully completed in   0.6 seconds

Maximum memory used throughout the entire GTOINT-calculation: 38.7 MB


           ************************************************************
           *        Program running with 8 parallel MPI-processes     *
           *              working on a common directory               *
           ************************************************************
-------------------------------------------------------------------------------
                                 ORCA SCF
-------------------------------------------------------------------------------

------------
SCF SETTINGS
------------
Hamiltonian:
 Density Functional     Method          .... DFT(GTOs)
 Exchange Functional    Exchange        .... B88
   X-Alpha parameter    XAlpha          ....  0.666667
   Becke's b parameter  XBeta           ....  0.004200
 Correlation Functional Correlation     .... LYP
 LDA part of GGA corr.  LDAOpt          .... VWN-5
 Gradients option       PostSCFGGA      .... off
 Hybrid DFT is turned on
   Fraction HF Exchange ScalHFX         ....  0.200000
   Scaling of DF-GGA-X  ScalDFX         ....  0.720000
   Scaling of DF-GGA-C  ScalDFC         ....  0.810000
   Scaling of DF-LDA-C  ScalLDAC        ....  1.000000
   Perturbative correction              ....  0.000000
   Density functional embedding theory  .... OFF
   NL short-range parameter             ....  4.800000
 RI-approximation to the Coulomb term is turned on
   Number of AuxJ basis functions       .... 1242
   RIJ-COSX (HFX calculated with COS-X)).... on


General Settings:
 Integral files         IntName         .... Stone-Wales_defect_loss_six
 Hartree-Fock type      HFTyp           .... UHF
 Total Charge           Charge          ....    0
 Multiplicity           Mult            ....    1
 Number of Electrons    NEL             ....  150
 Basis Dimension        Dim             ....  564
 Nuclear Repulsion      ENuc            ....   1711.0943110332 Eh

Convergence Acceleration:
 DIIS                   CNVDIIS         .... on
   Start iteration      DIISMaxIt       ....    12
   Startup error        DIISStart       ....  0.200000
   # of expansion vecs  DIISMaxEq       ....     5
   Bias factor          DIISBfac        ....   1.050
   Max. coefficient     DIISMaxC        ....  10.000
 Trust-Rad. Augm. Hess. CNVTRAH         .... auto
   Auto Start mean grad. ratio tolernc. ....  1.125000
   Auto Start start iteration           ....     1
   Auto Start num. interpolation iter.  ....    10
   Max. Number of Micro iterations      ....    16
   Max. Number of Macro iterations      .... Maxiter - #DIIS iter
   Number of Davidson start vectors     ....     2
   Converg. threshold I  (grad. norm)   ....   5.000e-05
   Converg. threshold II (energy diff.) ....   1.000e-06
   Grad. Scal. Fac. for Micro threshold ....   0.100
   Minimum threshold for Micro iter.    ....   0.010
   NR start threshold (gradient norm)   ....   0.001
   Initial trust radius                 ....   0.400
   Minimum AH scaling param. (alpha)    ....   1.000
   Maximum AH scaling param. (alpha)    .... 1000.000
   Orbital update algorithm             .... Taylor
   White noise on init. David. guess    .... on
   Maximum white noise                  ....   0.010
   Quad. conv. algorithm                .... NR
 SOSCF                  CNVSOSCF        .... off
 Level Shifting         CNVShift        .... on
   Level shift para.    LevelShift      ....    0.2500
   Turn off err/grad.   ShiftErr        ....    0.0010
 Zerner damping         CNVZerner       .... off
 Static damping         CNVDamp         .... on
   Fraction old density DampFac         ....    0.7000
   Max. Damping (<1)    DampMax         ....    0.9800
   Min. Damping (>=0)   DampMin         ....    0.0000
   Turn off err/grad.   DampErr         ....    0.1000
 Fernandez-Rico         CNVRico         .... off

SCF Procedure:
 Maximum # iterations   MaxIter         ....   125
 SCF integral mode      SCFMode         .... Direct
   Integral package                     .... SHARK and LIBINT hybrid scheme
 Reset frequency        DirectResetFreq ....    20
 Integral Threshold     Thresh          ....  1.000e-10 Eh
 Primitive CutOff       TCut            ....  1.000e-11 Eh

Convergence Tolerance:
 Convergence Check Mode ConvCheckMode   .... Total+1el-Energy
 Convergence forced     ConvForced      .... 1
 Energy Change          TolE            ....  1.000e-06 Eh
 1-El. energy change                    ....  1.000e-03 Eh
 DIIS Error             TolErr          ....  1.000e-06


Diagonalization of the overlap matrix:
Smallest eigenvalue                        ... 6.931e-10
Time for diagonalization                   ...    0.034 sec
Threshold for overlap eigenvalues          ... 1.000e-08
Number of eigenvalues below threshold      ... 6
Smallest eigenvalue above threshold        ... 3.115e-08
Time for construction of square roots      ...    0.045 sec
Total time needed                          ...    0.080 sec

---------------------
INITIAL GUESS: MOREAD
---------------------
Guess MOs are being read from file: Stone-Wales_defect_loss_six_orca6.0.gbw
Input Geometry matches current geometry (good)
Input basis set matches current basis set (good)
MOs were renormalized
MOs were reorthogonalized (Cholesky)
                      ------------------
                      INITIAL GUESS DONE (   0.2 sec)
                      ------------------
-------------------
DFT GRID GENERATION
-------------------

General Integration Accuracy     IntAcc      ... 4.388
Radial Grid Type                 RadialGrid  ... OptM3 with GC (2021)
Angular Grid (max. ang.)         AngularGrid ... 4 (Lebedev-302)
Angular grid pruning method      GridPruning ... 4 (adaptive)
Weight generation scheme         WeightScheme... Becke
Basis function cutoff            BFCut       ... 1.0000e-10
Integration weight cutoff        WCut        ... 1.0000e-14
Angular grids for H and He will be reduced by one unit
Partially contracted basis set               ... off
Rotationally invariant grid construction     ... off

Total number of grid points                  ...   167315
Total number of batches                      ...     2629
Average number of points per batch           ...       63
Average number of grid points per atom       ...     5577
Time for grid setup =    1.189 sec

--------------------
COSX GRID GENERATION
--------------------

GRIDX 1
-------
General Integration Accuracy     IntAcc      ... 3.816
Radial Grid Type                 RadialGrid  ... OptM3 with GC (2021)
Angular Grid (max. ang.)         AngularGrid ... 1 (Lebedev-50)
Angular grid pruning method      GridPruning ... 4 (adaptive)
Weight generation scheme         WeightScheme... Becke
Basis function cutoff            BFCut       ... 1.0000e-10
Integration weight cutoff        WCut        ... 1.0000e-14
Angular grids for H and He will be reduced by one unit
Partially contracted basis set               ... on
Rotationally invariant grid construction     ... off

Total number of grid points                  ...    21177
Total number of batches                      ...      349
Average number of points per batch           ...       60
Average number of grid points per atom       ...      706
UseSFitting                                  ... on

GRIDX 2
-------
General Integration Accuracy     IntAcc      ... 4.020
Radial Grid Type                 RadialGrid  ... OptM3 with GC (2021)
Angular Grid (max. ang.)         AngularGrid ... 2 (Lebedev-110)
Angular grid pruning method      GridPruning ... 4 (adaptive)
Weight generation scheme         WeightScheme... Becke
Basis function cutoff            BFCut       ... 1.0000e-10
Integration weight cutoff        WCut        ... 1.0000e-14
Angular grids for H and He will be reduced by one unit
Partially contracted basis set               ... on
Rotationally invariant grid construction     ... off

Total number of grid points                  ...    52522
Total number of batches                      ...      841
Average number of points per batch           ...       62
Average number of grid points per atom       ...     1751
UseSFitting                                  ... on

GRIDX 3
-------
General Integration Accuracy     IntAcc      ... 4.338
Radial Grid Type                 RadialGrid  ... OptM3 with GC (2021)
Angular Grid (max. ang.)         AngularGrid ... 3 (Lebedev-194)
Angular grid pruning method      GridPruning ... 4 (adaptive)
Weight generation scheme         WeightScheme... Becke
Basis function cutoff            BFCut       ... 1.0000e-10
Integration weight cutoff        WCut        ... 1.0000e-14
Angular grids for H and He will be reduced by one unit
Partially contracted basis set               ... on
Rotationally invariant grid construction     ... off

Total number of grid points                  ...   113571
Total number of batches                      ...     1792
Average number of points per batch           ...       63
Average number of grid points per atom       ...     3786
UseSFitting                                  ... on

Time for X-Grid setup             =    1.847 sec

--------------
SCF ITERATIONS
--------------
ITER       Energy         Delta-E        Max-DP      RMS-DP      [F,P]     Damp
               ***  Starting incremental Fock matrix formation  ***
  0   -917.4042646734   0.000000000000 0.61574383  0.00660900  0.0000344 0.7000
                 **** Energy Check signals convergence ****

               *****************************************************
               *                     SUCCESS                       *
               *           SCF CONVERGED AFTER   1 CYCLES          *
               *****************************************************


------------------------------------------------------------------------------
                          SCF STABILITY ANALYSIS                              
------------------------------------------------------------------------------


---------------
TD-DFT XC SETUP
---------------

DFT calculation                         ... on
Name of the grid file                   ... Stone-Wales_defect_loss_six.grid.tmp
Exchange functional (SCF)               ... B88
Exchange functional (TD-DFT)            ... B88
   X-Alpha parameter    XAlpha (SCF)    ...  0.666667
   X-Alpha parameter    XAlpha (TD-DFT) ...  0.666667
   Becke's b parameter  XBeta (SCF)     ...  0.004200
   Becke's b parameter  XBeta (TD-DFT)  ...  0.004200
Correlation functional (SCF)            ... LYP
Correlation functional (TD-DFT)         ... LYP
 LDA part of GGA corr.  LDAOpt (SCF)    ... VWN-5
 LDA part of GGA corr.  LDAOpt (TD-DFT) ... VWN-5
Hybrid DFT                              ... on
   Exchange mixing (SCF)                ...  0.200
   Exchange mixing (TD-DFT)             ...  0.200
   GGA exch. scaling(SCF)               ...  0.720
   GGA exch. scaling (TD-DFT)           ...  0.720
   GGA corr. scaling (SCF)              ...  0.810
   GGA corr. scaling (TD-DFT)           ...  0.810

Electron density on the grid   ... found on disk
Building xc-kernel on the grid ... done
                    *** TD-DFT CALCULATION INITIALIZED ***

                       ****Iteration    0****

   Memory handling for direct AO based CIS:
   Memory per vector needed      ...    18 MB
   Memory needed                 ...   113 MB
   Memory available              ...  5000 MB
   Number of vectors per batch   ...   263
   Number of batches             ...     1
   Time for densities:     0.124
   Time for XC-Integration:    13.562
   Time for K (COSX):   100.823
   Time for RI-J (Direct):     3.475
   Time for Sigma-Completion:     0.121
   Lowest Energy          :     0.048545968588
   Maximum Energy change  :     0.057420056840 (vector 2)
   Maximum residual norm  :     0.001750805423

                       ****Iteration    1****
   Time for densities:     0.058
   Time for XC-Integration:     8.211
   Time for K (COSX):    89.404
   Time for RI-J (Direct):     2.117
   Time for Sigma-Completion:     0.063
   Lowest Energy          :     0.043636531876
   Maximum Energy change  :     0.005077359324 (vector 1)
   Maximum residual norm  :     0.002202430145

                       ****Iteration    2****
   Time for densities:     0.073
   Time for XC-Integration:     8.438
   Time for K (COSX):    89.597
   Time for RI-J (Direct):     2.163
   Time for Sigma-Completion:     0.057
   Lowest Energy          :     0.043526246300
   Maximum Energy change  :     0.002494413840 (vector 1)
   Maximum residual norm  :     0.000645278059

                       ****Iteration    3****
   Time for densities:     0.064
   Time for XC-Integration:     8.460
   Time for K (COSX):    89.470
   Time for RI-J (Direct):     2.130
   Time for Sigma-Completion:     0.055
   Lowest Energy          :     0.043512288397
   Maximum Energy change  :     0.002066152972 (vector 1)
   Maximum residual norm  :     0.002056236620

                       ****Iteration    4****
   Time for densities:     0.091
   Time for XC-Integration:     9.012
   Time for K (COSX):    89.510
   Time for RI-J (Direct):     2.158
   Time for Sigma-Completion:     0.052
   Lowest Energy          :     0.040403256223
   Maximum Energy change  :     0.003109032174 (vector 0)
   Maximum residual norm  :     0.002189659618

                       ****Iteration    5****
   Time for densities:     0.066
   Time for XC-Integration:     9.127
   Time for K (COSX):    88.936
   Time for RI-J (Direct):     2.234
   Time for Sigma-Completion:     0.042
   Lowest Energy          :     0.038448078082
   Maximum Energy change  :     0.001955178141 (vector 0)
   Maximum residual norm  :     0.000689525151

                       ****Iteration    6****
   Time for densities:     0.047
   Time for XC-Integration:     9.075
   Time for K (COSX):    88.956
   Time for RI-J (Direct):     2.167
   Time for Sigma-Completion:     0.045
   Lowest Energy          :     0.036498343442
   Maximum Energy change  :     0.001949734640 (vector 0)
   Maximum residual norm  :     0.001020071293

                       ****Iteration    7****
   Time for densities:     0.071
   Time for XC-Integration:     9.337
   Time for K (COSX):    88.934
   Time for RI-J (Direct):     2.173
   Time for Sigma-Completion:     0.044
   Lowest Energy          :     0.035498647929
   Maximum Energy change  :     0.000999695513 (vector 0)
   Maximum residual norm  :     0.000312852707

                       ****Iteration    8****
   Time for densities:     0.071
   Time for XC-Integration:     9.279
   Time for K (COSX):    89.097
   Time for RI-J (Direct):     2.225
   Time for Sigma-Completion:     0.054
   Lowest Energy          :     0.034732531118
   Maximum Energy change  :     0.000766116811 (vector 0)
   Maximum residual norm  :     0.000590441717

                       ****Iteration    9****
   Time for densities:     0.069
   Time for XC-Integration:     9.406
   Time for K (COSX):    89.230
   Time for RI-J (Direct):     2.089
   Time for Sigma-Completion:     0.059
   Lowest Energy          :     0.033351673555
   Maximum Energy change  :     0.001629154868 (vector 2)
   Maximum residual norm  :     0.003922493463

                       ****Iteration   10****
   Time for densities:     0.045
   Time for XC-Integration:     6.213
   Time for K (COSX):    85.597
   Time for RI-J (Direct):     1.582
   Time for Sigma-Completion:     0.027
   Lowest Energy          :     0.031549007286
   Maximum Energy change  :     0.006448184200 (vector 2)
   Maximum residual norm  :     0.002197367683

                       ****Iteration   11****
   Time for densities:     0.049
   Time for XC-Integration:     6.262
   Time for K (COSX):    85.720
   Time for RI-J (Direct):     1.554
   Time for Sigma-Completion:     0.041
   Lowest Energy          :     0.029996843630
   Maximum Energy change  :     0.002026941597 (vector 1)
   Maximum residual norm  :     0.001077680190

                       ****Iteration   12****
   Time for densities:     0.045
   Time for XC-Integration:     6.391
   Time for K (COSX):    85.338
   Time for RI-J (Direct):     1.682
   Time for Sigma-Completion:     0.034
   Lowest Energy          :     0.028654867250
   Maximum Energy change  :     0.001466871839 (vector 1)
   Maximum residual norm  :     0.000490710146

                       ****Iteration   13****
   Time for densities:     0.035
   Time for XC-Integration:     6.307
   Time for K (COSX):    85.460
   Time for RI-J (Direct):     1.632
   Time for Sigma-Completion:     0.048
   Lowest Energy          :     0.026853813152
   Maximum Energy change  :     0.001801054099 (vector 0)
   Maximum residual norm  :     0.001345213479

                       ****Iteration   14****
   Time for densities:     0.047
   Time for XC-Integration:     6.435
   Time for K (COSX):    85.478
   Time for RI-J (Direct):     1.592
   Time for Sigma-Completion:     0.040
   Lowest Energy          :     0.024877231643
   Maximum Energy change  :     0.003019349394 (vector 1)
   Maximum residual norm  :     0.000835972471

                       ****Iteration   15****
   Time for densities:     0.058
   Time for XC-Integration:     9.368
   Time for K (COSX):    88.916
   Time for RI-J (Direct):     2.139
   Time for Sigma-Completion:     0.049
   Lowest Energy          :     0.024112303394
   Maximum Energy change  :     0.000980635143 (vector 1)
   Maximum residual norm  :     0.000230603324

                       ****Iteration   16****
   Time for densities:     0.073
   Time for XC-Integration:     9.338
   Time for K (COSX):    88.911
   Time for RI-J (Direct):     2.097
   Time for Sigma-Completion:     0.056
   Lowest Energy          :     0.023898224104
   Maximum Energy change  :     0.000264939020 (vector 1)
   Maximum residual norm  :     0.000038046387

                       ****Iteration   17****
   Time for densities:     0.071
   Time for XC-Integration:     9.539
   Time for K (COSX):    88.824
   Time for RI-J (Direct):     2.166
   Time for Sigma-Completion:     0.056
   Lowest Energy          :     0.023870013312
   Maximum Energy change  :     0.000038601533 (vector 1)
   Maximum residual norm  :     0.000011367395

                       ****Iteration   18****
   Time for densities:     0.059
   Time for XC-Integration:     9.507
   Time for K (COSX):    88.913
   Time for RI-J (Direct):     2.241
   Time for Sigma-Completion:     0.042
   Lowest Energy          :     0.023863181544
   Maximum Energy change  :     0.000011613687 (vector 2)
   Maximum residual norm  :     0.000002926128

      *** CONVERGENCE OF RESIDUAL NORM REACHED ***

----------------------------- 
SCF STABILITY ANALYSIS RESULT 
----------------------------- 

UHF/UKS->UHF/UKS - singlet - internal

   Root    Eigenvalue (au) 
     0       0.023863 
     1       0.033974 
     2       0.042153 

Stability Analysis indicates a stable HF/KS wave function.


Total time for performing the stability analysis:  1898.130sec

Old exchange energy                            =    -25.291015565 Eh
New exchange energy                            =    -25.291046393 Eh
Exchange energy change after final integration =     -0.000030827 Eh
Total energy after final integration           =   -917.404295203 Eh
Final COS-X integration done in                =    25.743 sec

----------------
TOTAL SCF ENERGY
----------------

Total Energy       :         -917.40429520 Eh          -24963.84001 eV

Components:
Nuclear Repulsion  :         1711.09431103 Eh           46561.24333 eV
Electronic Energy  :        -2628.49860624 Eh          -71525.08334 eV
One Electron Energy:        -4636.47513654 Eh         -126164.90256 eV
Two Electron Energy:         2007.97653030 Eh           54639.81922 eV
Max COSX asymmetry :            0.00000732 Eh               0.00020 eV

Virial components:
Potential Energy   :        -1831.58918628 Eh          -49840.07558 eV
Kinetic Energy     :          914.18489108 Eh           24876.23557 eV
Virial Ratio       :            2.00352161


DFT components:
N(Alpha)           :       75.000131642969 electrons
N(Beta)            :       75.000131836783 electrons
N(Total)           :      150.000263479752 electrons
E(X)               :     -100.621729451103 Eh       
E(C)               :       -6.053860569900 Eh       
E(XC)              :     -106.675590021003 Eh       
DFET-embed. en.    :        0.000000000000 Eh       

---------------
SCF CONVERGENCE
---------------

  Last Energy change         ...    2.9765e-07  Tolerance :   1.0000e-06
  Last MAX-Density change    ...    3.0450e-01  Tolerance :   1.0000e-05
  Last RMS-Density change    ...    2.5130e-03  Tolerance :   1.0000e-06
  Last DIIS Error            ...    2.8000e-05  Tolerance :   1.0000e-06

             **** THE GBW FILE WAS UPDATED (Stone-Wales_defect_loss_six.gbw) ****
             **** DENSITY Stone-Wales_defect_loss_six.scfp WAS UPDATED ****
             **** ENERGY FILE WAS UPDATED (Stone-Wales_defect_loss_six.en.tmp) ****
----------------------
UHF SPIN CONTAMINATION
----------------------

Warning: in a DFT calculation there is little theoretical justification to 
         calculate <S**2> as in Hartree-Fock theory. We will do it anyways
         but you should keep in mind that the values have only limited relevance

Expectation value of <S**2>     :     0.297489
Ideal value S*(S+1) for S=0.0   :     0.000000
Deviation                       :     0.297489

             **** THE GBW FILE WAS UPDATED (Stone-Wales_defect_loss_six.gbw) ****
             **** DENSITY Stone-Wales_defect_loss_six.scfp WAS UPDATED ****
----------------
ORBITAL ENERGIES
----------------
                 SPIN UP ORBITALS
  NO   OCC          E(Eh)            E(eV) 
   0   1.0000     -10.241121      -278.6751 
   1   1.0000     -10.240938      -278.6701 
   2   1.0000     -10.234794      -278.5029 
   3   1.0000     -10.233424      -278.4656 
   4   1.0000     -10.230194      -278.3777 
   5   1.0000     -10.230070      -278.3744 
   6   1.0000     -10.225425      -278.2480 
   7   1.0000     -10.224837      -278.2319 
   8   1.0000     -10.210503      -277.8419 
   9   1.0000     -10.210316      -277.8368 
  10   1.0000     -10.209853      -277.8242 
  11   1.0000     -10.209567      -277.8164 
  12   1.0000     -10.205513      -277.7061 
  13   1.0000     -10.204975      -277.6915 
  14   1.0000     -10.201146      -277.5873 
  15   1.0000     -10.201041      -277.5844 
  16   1.0000     -10.200336      -277.5652 
  17   1.0000     -10.198612      -277.5183 
  18   1.0000     -10.198127      -277.5051 
  19   1.0000     -10.198098      -277.5044 
  20   1.0000     -10.197769      -277.4954 
  21   1.0000     -10.196420      -277.4587 
  22   1.0000     -10.196361      -277.4571 
  23   1.0000     -10.191368      -277.3212 
  24   1.0000      -0.942339       -25.6424 
  25   1.0000      -0.912447       -24.8289 
  26   1.0000      -0.890720       -24.2377 
  27   1.0000      -0.863177       -23.4883 
  28   1.0000      -0.842497       -22.9255 
  29   1.0000      -0.837285       -22.7837 
  30   1.0000      -0.806897       -21.9568 
  31   1.0000      -0.787263       -21.4225 
  32   1.0000      -0.774679       -21.0801 
  33   1.0000      -0.749741       -20.4015 
  34   1.0000      -0.734065       -19.9749 
  35   1.0000      -0.726728       -19.7753 
  36   1.0000      -0.684227       -18.6188 
  37   1.0000      -0.665372       -18.1057 
  38   1.0000      -0.656806       -17.8726 
  39   1.0000      -0.630367       -17.1532 
  40   1.0000      -0.599609       -16.3162 
  41   1.0000      -0.586124       -15.9492 
  42   1.0000      -0.582194       -15.8423 
  43   1.0000      -0.556522       -15.1437 
  44   1.0000      -0.541380       -14.7317 
  45   1.0000      -0.528508       -14.3814 
  46   1.0000      -0.519038       -14.1237 
  47   1.0000      -0.516344       -14.0504 
  48   1.0000      -0.488889       -13.3034 
  49   1.0000      -0.478729       -13.0269 
  50   1.0000      -0.464142       -12.6299 
  51   1.0000      -0.461231       -12.5507 
  52   1.0000      -0.456231       -12.4147 
  53   1.0000      -0.456184       -12.4134 
  54   1.0000      -0.434073       -11.8117 
  55   1.0000      -0.419512       -11.4155 
  56   1.0000      -0.418593       -11.3905 
  57   1.0000      -0.406112       -11.0509 
  58   1.0000      -0.404348       -11.0029 
  59   1.0000      -0.398204       -10.8357 
  60   1.0000      -0.396749       -10.7961 
  61   1.0000      -0.380970       -10.3667 
  62   1.0000      -0.368383       -10.0242 
  63   1.0000      -0.364574        -9.9206 
  64   1.0000      -0.351210        -9.5569 
  65   1.0000      -0.351090        -9.5537 
  66   1.0000      -0.301312        -8.1991 
  67   1.0000      -0.295662        -8.0454 
  68   1.0000      -0.289514        -7.8781 
  69   1.0000      -0.287582        -7.8255 
  70   1.0000      -0.285455        -7.7676 
  71   1.0000      -0.282671        -7.6919 
  72   1.0000      -0.252007        -6.8575 
  73   1.0000      -0.242797        -6.6068 
  74   1.0000      -0.206837        -5.6283 
  75   0.0000      -0.120294        -3.2734 
  76   0.0000      -0.110060        -2.9949 
  77   0.0000      -0.096348        -2.6218 
  78   0.0000      -0.090969        -2.4754 
  79   0.0000      -0.089747        -2.4421 
  80   0.0000      -0.081086        -2.2065 
  81   0.0000      -0.028002        -0.7620 
  82   0.0000      -0.000584        -0.0159 
  83   0.0000       0.003585         0.0975 
  84   0.0000       0.011284         0.3071 
  85   0.0000       0.012210         0.3323 
  86   0.0000       0.024224         0.6592 
  87   0.0000       0.031517         0.8576 
  88   0.0000       0.033651         0.9157 
  89   0.0000       0.035571         0.9679 
  90   0.0000       0.042019         1.1434 
  91   0.0000       0.045238         1.2310 
  92   0.0000       0.047132         1.2825 
  93   0.0000       0.049133         1.3370 
  94   0.0000       0.050731         1.3805 
  95   0.0000       0.055806         1.5186 
  96   0.0000       0.064005         1.7417 
  97   0.0000       0.068730         1.8702 
  98   0.0000       0.069561         1.8928 
  99   0.0000       0.070546         1.9197 
 100   0.0000       0.071420         1.9434 
 101   0.0000       0.072018         1.9597 
 102   0.0000       0.083501         2.2722 
 103   0.0000       0.090043         2.4502 
 104   0.0000       0.094492         2.5713 
 105   0.0000       0.094900         2.5824 
 106   0.0000       0.097115         2.6426 
 107   0.0000       0.098989         2.6936 
 108   0.0000       0.102923         2.8007 
 109   0.0000       0.111952         3.0464 
 110   0.0000       0.112307         3.0560 
 111   0.0000       0.121352         3.3022 
 112   0.0000       0.122525         3.3341 
 113   0.0000       0.131080         3.5669 
 114   0.0000       0.131969         3.5911 
 115   0.0000       0.132648         3.6095 
 116   0.0000       0.137216         3.7338 
 117   0.0000       0.139099         3.7851 
 118   0.0000       0.140649         3.8273 
 119   0.0000       0.143249         3.8980 
 120   0.0000       0.148215         4.0331 
 121   0.0000       0.151432         4.1207 
 122   0.0000       0.155355         4.2274 
 123   0.0000       0.159979         4.3533 
 124   0.0000       0.162289         4.4161 
 125   0.0000       0.164137         4.4664 
 126   0.0000       0.168077         4.5736 
 127   0.0000       0.173045         4.7088 
 128   0.0000       0.173567         4.7230 
 129   0.0000       0.177173         4.8211 
 130   0.0000       0.183027         4.9804 
 131   0.0000       0.183938         5.0052 
 132   0.0000       0.185646         5.0517 
 133   0.0000       0.188568         5.1312 
 134   0.0000       0.190756         5.1907 
 135   0.0000       0.193313         5.2603 
 136   0.0000       0.197242         5.3672 
 137   0.0000       0.198731         5.4077 
 138   0.0000       0.199313         5.4236 
 139   0.0000       0.200079         5.4444 
 140   0.0000       0.203241         5.5305 
 141   0.0000       0.205670         5.5966 
 142   0.0000       0.206302         5.6138 
 143   0.0000       0.208659         5.6779 
 144   0.0000       0.220585         6.0024 
 145   0.0000       0.224782         6.1166 
 146   0.0000       0.227057         6.1785 
 147   0.0000       0.230501         6.2722 
 148   0.0000       0.233128         6.3437 
 149   0.0000       0.235251         6.4015 
 150   0.0000       0.236186         6.4270 
 151   0.0000       0.238725         6.4960 
 152   0.0000       0.241716         6.5774 
 153   0.0000       0.242289         6.5930 
 154   0.0000       0.245017         6.6672 
 155   0.0000       0.245696         6.6857 
 156   0.0000       0.246787         6.7154 
 157   0.0000       0.252813         6.8794 
 158   0.0000       0.260950         7.1008 
 159   0.0000       0.264606         7.2003 
 160   0.0000       0.269228         7.3261 
 161   0.0000       0.270766         7.3679 
 162   0.0000       0.273286         7.4365 
 163   0.0000       0.274273         7.4634 
 164   0.0000       0.278767         7.5856 
 165   0.0000       0.283854         7.7241 
 166   0.0000       0.289104         7.8669 
 167   0.0000       0.289591         7.8802 
 168   0.0000       0.294184         8.0052 
 169   0.0000       0.294817         8.0224 
 170   0.0000       0.296956         8.0806 
 171   0.0000       0.301326         8.1995 
 172   0.0000       0.312588         8.5060 
 173   0.0000       0.313089         8.5196 
 174   0.0000       0.324482         8.8296 
 175   0.0000       0.325184         8.8487 
 176   0.0000       0.328861         8.9488 
 177   0.0000       0.336054         9.1445 
 178   0.0000       0.338416         9.2088 
 179   0.0000       0.347452         9.4546 
 180   0.0000       0.351440         9.5632 
 181   0.0000       0.357405         9.7255 
 182   0.0000       0.360313         9.8046 
 183   0.0000       0.360501         9.8097 
 184   0.0000       0.370191        10.0734 
 185   0.0000       0.378083        10.2882 
 186   0.0000       0.380899        10.3648 
 187   0.0000       0.387845        10.5538 
 188   0.0000       0.396900        10.8002 
 189   0.0000       0.401481        10.9248 
 190   0.0000       0.407619        11.0919 
 191   0.0000       0.414403        11.2765 
 192   0.0000       0.424182        11.5426 
 193   0.0000       0.427383        11.6297 
 194   0.0000       0.438163        11.9230 
 195   0.0000       0.441896        12.0246 
 196   0.0000       0.456882        12.4324 
 197   0.0000       0.467614        12.7244 
 198   0.0000       0.474507        12.9120 
 199   0.0000       0.482130        13.1194 
 200   0.0000       0.488267        13.2864 
 201   0.0000       0.492796        13.4097 
 202   0.0000       0.497329        13.5330 
 203   0.0000       0.501440        13.6449 
 204   0.0000       0.508141        13.8272 
 205   0.0000       0.518345        14.1049 
 206   0.0000       0.521729        14.1970 
 207   0.0000       0.523122        14.2349 
 208   0.0000       0.524440        14.2707 
 209   0.0000       0.525711        14.3053 
 210   0.0000       0.531670        14.4675 
 211   0.0000       0.546491        14.8708 
 212   0.0000       0.548635        14.9291 
 213   0.0000       0.552472        15.0335 
 214   0.0000       0.555636        15.1196 
 215   0.0000       0.564023        15.3478 
 216   0.0000       0.565511        15.3883 
 217   0.0000       0.570924        15.5356 
 218   0.0000       0.573347        15.6016 
 219   0.0000       0.583921        15.8893 
 220   0.0000       0.585482        15.9318 
 221   0.0000       0.587489        15.9864 
 222   0.0000       0.595653        16.2085 
 223   0.0000       0.596881        16.2419 
 224   0.0000       0.601311        16.3625 
 225   0.0000       0.602429        16.3929 
 226   0.0000       0.606461        16.5027 
 227   0.0000       0.608295        16.5526 
 228   0.0000       0.614389        16.7184 
 229   0.0000       0.615390        16.7456 
 230   0.0000       0.619771        16.8648 
 231   0.0000       0.620523        16.8853 
 232   0.0000       0.628100        17.0915 
 233   0.0000       0.635218        17.2851 
 234   0.0000       0.635888        17.3034 
 235   0.0000       0.641267        17.4498 
 236   0.0000       0.642461        17.4823 
 237   0.0000       0.660958        17.9856 
 238   0.0000       0.663089        18.0436 
 239   0.0000       0.664098        18.0710 
 240   0.0000       0.664892        18.0926 
 241   0.0000       0.667275        18.1575 
 242   0.0000       0.673863        18.3367 
 243   0.0000       0.685695        18.6587 
 244   0.0000       0.691572        18.8186 
 245   0.0000       0.697257        18.9733 
 246   0.0000       0.697672        18.9846 
 247   0.0000       0.701884        19.0992 
 248   0.0000       0.706412        19.2224 
 249   0.0000       0.709298        19.3010 
 250   0.0000       0.709952        19.3188 
 251   0.0000       0.714606        19.4454 
 252   0.0000       0.717781        19.5318 
 253   0.0000       0.719472        19.5778 
 254   0.0000       0.721205        19.6250 
 255   0.0000       0.732326        19.9276 
 256   0.0000       0.732627        19.9358 
 257   0.0000       0.736973        20.0540 
 258   0.0000       0.738255        20.0889 
 259   0.0000       0.767731        20.8910 
 260   0.0000       0.771306        20.9883 
 261   0.0000       0.777798        21.1650 
 262   0.0000       0.779185        21.2027 
 263   0.0000       0.784860        21.3571 
 264   0.0000       0.807265        21.9668 
 265   0.0000       0.812450        22.1079 
 266   0.0000       0.830753        22.6059 
 267   0.0000       0.855338        23.2749 
 268   0.0000       0.864724        23.5303 
 269   0.0000       0.874834        23.8054 
 270   0.0000       0.880527        23.9604 
 271   0.0000       0.881923        23.9984 
 272   0.0000       0.901696        24.5364 
 273   0.0000       0.902506        24.5584 
 274   0.0000       0.908905        24.7326 
 275   0.0000       0.915432        24.9102 
 276   0.0000       0.918413        24.9913 
 277   0.0000       0.925824        25.1930 
 278   0.0000       0.937975        25.5236 
 279   0.0000       0.938771        25.5453 
 280   0.0000       0.944309        25.6960 
 281   0.0000       0.948744        25.8166 
 282   0.0000       0.949710        25.8429 
 283   0.0000       0.950447        25.8630 
 284   0.0000       0.959621        26.1126 
 285   0.0000       0.967366        26.3234 
 286   0.0000       0.970573        26.4106 
 287   0.0000       0.975169        26.5357 
 288   0.0000       0.979278        26.6475 
 289   0.0000       0.986996        26.8575 
 290   0.0000       0.990745        26.9596 
 291   0.0000       1.001352        27.2482 
 292   0.0000       1.001997        27.2657 
 293   0.0000       1.003964        27.3193 
 294   0.0000       1.015570        27.6351 
 295   0.0000       1.015768        27.6405 
 296   0.0000       1.019893        27.7527 
 297   0.0000       1.023961        27.8634 
 298   0.0000       1.043888        28.4056 
 299   0.0000       1.044040        28.4098 
 300   0.0000       1.059563        28.8322 
 301   0.0000       1.069445        29.1011 
 302   0.0000       1.073701        29.2169 
 303   0.0000       1.075873        29.2760 
 304   0.0000       1.080652        29.4060 
 305   0.0000       1.087671        29.5970 
 306   0.0000       1.096622        29.8406 
 307   0.0000       1.101745        29.9800 
 308   0.0000       1.108828        30.1727 
 309   0.0000       1.129858        30.7450 
 310   0.0000       1.134535        30.8723 
 311   0.0000       1.149149        31.2699 
 312   0.0000       1.151619        31.3371 
 313   0.0000       1.157289        31.4914 
 314   0.0000       1.171573        31.8801 
 315   0.0000       1.177057        32.0294 
 316   0.0000       1.182141        32.1677 
 317   0.0000       1.209430        32.9103 
 318   0.0000       1.209599        32.9149 
 319   0.0000       1.223018        33.2800 
 320   0.0000       1.230123        33.4734 
 321   0.0000       1.236106        33.6361 
 322   0.0000       1.244516        33.8650 
 323   0.0000       1.246240        33.9119 
 324   0.0000       1.252592        34.0848 
 325   0.0000       1.259530        34.2736 
 326   0.0000       1.276421        34.7332 
 327   0.0000       1.323019        36.0012 
 328   0.0000       1.326770        36.1033 
 329   0.0000       1.364978        37.1429 
 330   0.0000       1.373284        37.3690 
 331   0.0000       1.393205        37.9110 
 332   0.0000       1.398550        38.0565 
 333   0.0000       1.415286        38.5119 
 334   0.0000       1.447439        39.3868 
 335   0.0000       1.451075        39.4858 
 336   0.0000       1.461119        39.7591 
 337   0.0000       1.461937        39.7813 
 338   0.0000       1.478777        40.2396 
 339   0.0000       1.481809        40.3221 
 340   0.0000       1.496773        40.7293 
 341   0.0000       1.507980        41.0342 
 342   0.0000       1.518500        41.3205 
 343   0.0000       1.525706        41.5166 
 344   0.0000       1.527410        41.5629 
 345   0.0000       1.539723        41.8980 
 346   0.0000       1.542041        41.9611 
 347   0.0000       1.566196        42.6184 
 348   0.0000       1.566850        42.6362 
 349   0.0000       1.570182        42.7268 
 350   0.0000       1.576177        42.8900 
 351   0.0000       1.608332        43.7649 
 352   0.0000       1.622552        44.1519 
 353   0.0000       1.623530        44.1785 
 354   0.0000       1.624137        44.1950 
 355   0.0000       1.661522        45.2123 
 356   0.0000       1.663380        45.2629 
 357   0.0000       1.686238        45.8849 
 358   0.0000       1.693754        46.0894 
 359   0.0000       1.697399        46.1886 
 360   0.0000       1.701197        46.2919 
 361   0.0000       1.703592        46.3571 
 362   0.0000       1.713903        46.6377 
 363   0.0000       1.724998        46.9396 
 364   0.0000       1.735624        47.2287 
 365   0.0000       1.739382        47.3310 
 366   0.0000       1.752155        47.6786 
 367   0.0000       1.770399        48.1750 
 368   0.0000       1.773980        48.2724 
 369   0.0000       1.779797        48.4307 
 370   0.0000       1.788138        48.6577 
 371   0.0000       1.792665        48.7809 
 372   0.0000       1.817981        49.4698 
 373   0.0000       1.820989        49.5516 
 374   0.0000       1.840091        50.0714 
 375   0.0000       1.846368        50.2422 
 376   0.0000       1.847803        50.2813 
 377   0.0000       1.855854        50.5004 
 378   0.0000       1.868363        50.8407 
 379   0.0000       1.881039        51.1857 
 380   0.0000       1.893910        51.5359 
 381   0.0000       1.900361        51.7114 
 382   0.0000       1.901826        51.7513 
 383   0.0000       1.902136        51.7598 
 384   0.0000       1.909460        51.9591 
 385   0.0000       1.932951        52.5983 
 386   0.0000       1.934618        52.6436 
 387   0.0000       1.960978        53.3609 
 388   0.0000       1.969609        53.5958 
 389   0.0000       1.973465        53.7007 
 390   0.0000       1.982256        53.9399 
 391   0.0000       1.987883        54.0931 
 392   0.0000       1.998387        54.3789 
 393   0.0000       2.004659        54.5496 
 394   0.0000       2.013264        54.7837 
 395   0.0000       2.014873        54.8275 
 396   0.0000       2.030039        55.2402 
 397   0.0000       2.035743        55.3954 
 398   0.0000       2.045640        55.6647 
 399   0.0000       2.046799        55.6962 
 400   0.0000       2.057341        55.9831 
 401   0.0000       2.086849        56.7860 
 402   0.0000       2.095058        57.0094 
 403   0.0000       2.100596        57.1601 
 404   0.0000       2.121270        57.7227 
 405   0.0000       2.127579        57.8944 
 406   0.0000       2.145815        58.3906 
 407   0.0000       2.158839        58.7450 
 408   0.0000       2.158996        58.7493 
 409   0.0000       2.179298        59.3017 
 410   0.0000       2.205366        60.0111 
 411   0.0000       2.225483        60.5585 
 412   0.0000       2.244682        61.0809 
 413   0.0000       2.260739        61.5178 
 414   0.0000       2.268959        61.7415 
 415   0.0000       2.278356        61.9972 
 416   0.0000       2.301421        62.6249 
 417   0.0000       2.303911        62.6926 
 418   0.0000       2.316643        63.0391 
 419   0.0000       2.334263        63.5185 
 420   0.0000       2.341428        63.7135 
 421   0.0000       2.354755        64.0761 
 422   0.0000       2.378544        64.7235 
 423   0.0000       2.406881        65.4946 
 424   0.0000       2.434747        66.2528 
 425   0.0000       2.450364        66.6778 
 426   0.0000       2.465080        67.0782 
 427   0.0000       2.474109        67.3239 
 428   0.0000       2.487010        67.6750 
 429   0.0000       2.494086        67.8675 
 430   0.0000       2.534158        68.9579 
 431   0.0000       2.536389        69.0187 
 432   0.0000       2.537973        69.0617 
 433   0.0000       2.553982        69.4974 
 434   0.0000       2.584152        70.3183 
 435   0.0000       2.607801        70.9619 
 436   0.0000       2.630325        71.5748 
 437   0.0000       2.633624        71.6646 
 438   0.0000       2.637255        71.7634 
 439   0.0000       2.641869        71.8889 
 440   0.0000       2.657942        72.3263 
 441   0.0000       2.680960        72.9526 
 442   0.0000       2.691640        73.2432 
 443   0.0000       2.696297        73.3700 
 444   0.0000       2.707235        73.6676 
 445   0.0000       2.713153        73.8286 
 446   0.0000       2.716654        73.9239 
 447   0.0000       2.721661        74.0602 
 448   0.0000       2.726740        74.1984 
 449   0.0000       2.739154        74.5362 
 450   0.0000       2.759593        75.0923 
 451   0.0000       2.761969        75.1570 
 452   0.0000       2.762858        75.1812 
 453   0.0000       2.768006        75.3213 
 454   0.0000       2.786228        75.8171 
 455   0.0000       2.797144        76.1142 
 456   0.0000       2.812960        76.5445 
 457   0.0000       2.815673        76.6184 
 458   0.0000       2.818643        76.6992 
 459   0.0000       2.826467        76.9121 
 460   0.0000       2.855034        77.6894 
 461   0.0000       2.860754        77.8451 
 462   0.0000       2.867667        78.0332 
 463   0.0000       2.870089        78.0991 
 464   0.0000       2.912992        79.2665 
 465   0.0000       2.923348        79.5483 
 466   0.0000       2.925720        79.6129 
 467   0.0000       2.952772        80.3490 
 468   0.0000       2.964303        80.6628 
 469   0.0000       2.970217        80.8237 
 470   0.0000       2.975702        80.9730 
 471   0.0000       2.993554        81.4587 
 472   0.0000       2.997146        81.5565 
 473   0.0000       3.000426        81.6457 
 474   0.0000       3.007054        81.8261 
 475   0.0000       3.025471        82.3273 
 476   0.0000       3.028871        82.4198 
 477   0.0000       3.048437        82.9522 
 478   0.0000       3.057207        83.1908 
 479   0.0000       3.087081        84.0038 
 480   0.0000       3.089767        84.0768 
 481   0.0000       3.107910        84.5705 
 482   0.0000       3.148873        85.6852 
 483   0.0000       3.149461        85.7012 
 484   0.0000       3.173950        86.3676 
 485   0.0000       3.206478        87.2527 
 486   0.0000       3.245864        88.3244 
 487   0.0000       3.266638        88.8897 
 488   0.0000       3.276329        89.1535 
 489   0.0000       3.277668        89.1899 
 490   0.0000       3.290494        89.5389 
 491   0.0000       3.300017        89.7980 
 492   0.0000       3.365754        91.5868 
 493   0.0000       3.368788        91.6694 
 494   0.0000       3.370986        91.7292 
 495   0.0000       3.377607        91.9093 
 496   0.0000       3.390032        92.2475 
 497   0.0000       3.403407        92.6114 
 498   0.0000       3.434540        93.4586 
 499   0.0000       3.450835        93.9020 
 500   0.0000       3.451219        93.9124 
 501   0.0000       3.496410        95.1422 
 502   0.0000       3.501425        95.2786 
 503   0.0000       3.539512        96.3150 
 504   0.0000       3.563006        96.9543 
 505   0.0000       3.572870        97.2227 
 506   0.0000       3.593986        97.7973 
 507   0.0000       3.633857        98.8823 
 508   0.0000       3.653210        99.4089 
 509   0.0000       3.671003        99.8931 
 510   0.0000       3.775630       102.7401 
 511   0.0000       3.787027       103.0502 
 512   0.0000       3.793039       103.2138 
 513   0.0000       3.799650       103.3937 
 514   0.0000       3.973652       108.1286 
 515   0.0000       4.036200       109.8306 
 516   0.0000       4.041057       109.9628 
 517   0.0000       4.063566       110.5753 
 518   0.0000       4.129554       112.3709 
 519   0.0000       4.159813       113.1943 
 520   0.0000       4.252057       115.7044 
 521   0.0000       4.368518       118.8734 
 522   0.0000       4.480063       121.9087 
 523   0.0000       4.581088       124.6577 
 524   0.0000       4.711808       128.2148 
 525   0.0000       4.717841       128.3790 
 526   0.0000       4.798537       130.5748 
 527   0.0000       4.821856       131.2094 
 528   0.0000       4.854549       132.0990 
 529   0.0000       4.877185       132.7149 
 530   0.0000      23.250595       632.6808 
 531   0.0000      23.477281       638.8493 
 532   0.0000      23.518777       639.9785 
 533   0.0000      23.670963       644.1196 
 534   0.0000      23.746109       646.1645 
 535   0.0000      23.759442       646.5273 
 536   0.0000      23.785700       647.2418 
 537   0.0000      23.870676       649.5541 
 538   0.0000      23.907550       650.5575 
 539   0.0000      23.950978       651.7393 
 540   0.0000      23.968207       652.2081 
 541   0.0000      23.979885       652.5259 
 542   0.0000      24.004730       653.2019 
 543   0.0000      24.014424       653.4657 
 544   0.0000      24.017710       653.5551 
 545   0.0000      24.048165       654.3839 
 546   0.0000      24.083805       655.3537 
 547   0.0000      24.102529       655.8632 
 548   0.0000      24.133983       656.7191 
 549   0.0000      24.173244       657.7874 
 550   0.0000      24.185331       658.1163 
 551   0.0000      24.556641       668.2202 
 552   0.0000      24.644630       670.6145 
 553   0.0000      24.649002       670.7334 
 554   0.0000       0.000000         0.0000 
 555   0.0000       0.000000         0.0000 
 556   0.0000       0.000000         0.0000 
 557   0.0000       0.000000         0.0000 
 558   0.0000       0.000000         0.0000 
 559   0.0000       0.000000         0.0000 
 560   0.0000       0.000000         0.0000 
 561   0.0000       0.000000         0.0000 
 562   0.0000       0.000000         0.0000 
 563   0.0000       0.000000         0.0000 

                 SPIN DOWN ORBITALS
  NO   OCC          E(Eh)            E(eV) 
   0   1.0000     -10.241121      -278.6751 
   1   1.0000     -10.240938      -278.6701 
   2   1.0000     -10.234794      -278.5029 
   3   1.0000     -10.233423      -278.4656 
   4   1.0000     -10.230200      -278.3779 
   5   1.0000     -10.230065      -278.3742 
   6   1.0000     -10.225436      -278.2483 
   7   1.0000     -10.224826      -278.2317 
   8   1.0000     -10.210503      -277.8419 
   9   1.0000     -10.210317      -277.8368 
  10   1.0000     -10.209837      -277.8238 
  11   1.0000     -10.209583      -277.8169 
  12   1.0000     -10.205516      -277.7062 
  13   1.0000     -10.204972      -277.6914 
  14   1.0000     -10.201167      -277.5879 
  15   1.0000     -10.201020      -277.5839 
  16   1.0000     -10.200329      -277.5651 
  17   1.0000     -10.198612      -277.5184 
  18   1.0000     -10.198148      -277.5057 
  19   1.0000     -10.198097      -277.5043 
  20   1.0000     -10.197748      -277.4948 
  21   1.0000     -10.196482      -277.4604 
  22   1.0000     -10.196298      -277.4554 
  23   1.0000     -10.191376      -277.3214 
  24   1.0000      -0.942339       -25.6424 
  25   1.0000      -0.912446       -24.8289 
  26   1.0000      -0.890720       -24.2377 
  27   1.0000      -0.863177       -23.4882 
  28   1.0000      -0.842497       -22.9255 
  29   1.0000      -0.837285       -22.7837 
  30   1.0000      -0.806896       -21.9567 
  31   1.0000      -0.787263       -21.4225 
  32   1.0000      -0.774679       -21.0801 
  33   1.0000      -0.749740       -20.4015 
  34   1.0000      -0.734064       -19.9749 
  35   1.0000      -0.726728       -19.7753 
  36   1.0000      -0.684228       -18.6188 
  37   1.0000      -0.665375       -18.1058 
  38   1.0000      -0.656802       -17.8725 
  39   1.0000      -0.630368       -17.1532 
  40   1.0000      -0.599604       -16.3161 
  41   1.0000      -0.586132       -15.9495 
  42   1.0000      -0.582194       -15.8423 
  43   1.0000      -0.556522       -15.1437 
  44   1.0000      -0.541379       -14.7317 
  45   1.0000      -0.528508       -14.3814 
  46   1.0000      -0.519060       -14.1243 
  47   1.0000      -0.516318       -14.0497 
  48   1.0000      -0.488888       -13.3033 
  49   1.0000      -0.478729       -13.0269 
  50   1.0000      -0.464142       -12.6299 
  51   1.0000      -0.461230       -12.5507 
  52   1.0000      -0.456232       -12.4147 
  53   1.0000      -0.456184       -12.4134 
  54   1.0000      -0.434076       -11.8118 
  55   1.0000      -0.419512       -11.4155 
  56   1.0000      -0.418592       -11.3905 
  57   1.0000      -0.406112       -11.0509 
  58   1.0000      -0.404349       -11.0029 
  59   1.0000      -0.398201       -10.8356 
  60   1.0000      -0.396749       -10.7961 
  61   1.0000      -0.380970       -10.3667 
  62   1.0000      -0.368382       -10.0242 
  63   1.0000      -0.364565        -9.9203 
  64   1.0000      -0.351212        -9.5570 
  65   1.0000      -0.351088        -9.5536 
  66   1.0000      -0.301313        -8.1992 
  67   1.0000      -0.295658        -8.0453 
  68   1.0000      -0.289533        -7.8786 
  69   1.0000      -0.287585        -7.8256 
[...]
 761   69933.4    143.0      0.00015  -0.02837  -0.02442  -0.00006
 762   69997.9    142.9     -0.00008  -0.00001   0.00008  -0.07033
 763   70030.4    142.8      0.00151   0.00001   0.00001  -0.04764
 764   70031.6    142.8     -0.00016   0.00002   0.00001  -0.09522
 765   70052.1    142.8     -0.00078   0.02110   0.01269  -0.00006
 766   70066.3    142.7      0.00677  -0.07053   0.10537   0.00017
 767   70071.7    142.7     -0.00055  -0.00008   0.00020  -0.07998
 768   70122.5    142.6     -0.00741   0.00012  -0.00006  -0.01294
 769   70128.8    142.6      0.00165  -0.02362   0.03223  -0.00019
 770   70133.3    142.6      0.00515  -0.00006  -0.00013   0.15035
 771   70206.4    142.4     -0.02129   0.00021   0.00037  -0.30577
 772   70208.9    142.4      0.01557   0.09594   0.01888   0.00072
 773   70256.1    142.3     -0.00234   0.01856  -0.09590  -0.00012
 774   70258.6    142.3      0.00284   0.00001  -0.00006   0.00914
 775   70292.0    142.3     -0.00303  -0.00002  -0.00005  -0.00263
 776   70352.1    142.1      0.00007  -0.00517  -0.00226   0.00000
 777   70373.1    142.1     -0.00002   0.00000   0.00000  -0.00324
 778   70382.7    142.1      0.00125  -0.00002   0.00003  -0.02102
 779   70413.1    142.0      0.00132   0.00002   0.00001  -0.01806
 780   70418.8    142.0      0.00009   0.00001  -0.00002   0.00992
 781   70468.5    141.9      0.00158  -0.00000  -0.00032   0.32508
 782   70507.8    141.8      0.00019  -0.00001   0.00003  -0.01315
 783   70525.5    141.8      0.00029   0.00000  -0.00001   0.00176
 784   70606.7    141.6     -0.00014   0.03005  -0.05605  -0.00003
 785   70663.0    141.5      0.00048   0.04391  -0.07308  -0.00006
 786   70675.7    141.5     -0.00063   0.00002  -0.00005   0.00248
 787   70715.3    141.4     -0.00001  -0.00001   0.00003  -0.01358
 788   70769.5    141.3      0.00164   0.00005  -0.00008   0.00016
 789   70772.9    141.3     -0.00012  -0.00004   0.00009  -0.02702
 790   70780.4    141.3     -0.00108   0.07807  -0.12872  -0.00014
 791   70871.2    141.1     -0.00005  -0.00001   0.00004  -0.02632
 792   70981.8    140.9     -0.00059  -0.00003   0.00007  -0.03216
 793   71013.6    140.8      0.00208   0.09494   0.05676   0.00003
 794   71017.2    140.8     -0.00006   0.00008   0.00004   0.00527
 795   71050.1    140.7     -0.00051   0.16507   0.09992   0.00009
 796   71081.8    140.7      0.00455   0.00015   0.00000  -0.00117
 797   71094.5    140.7      0.00093  -0.14517  -0.08932  -0.00008
 798   71126.7    140.6     -0.00126  -0.06589   0.10020   0.00009
 799   71210.4    140.4     -0.00016  -0.00002   0.00004   0.02002
 800   71235.0    140.4     -0.00387   0.12635  -0.22349  -0.00017
 801   71293.9    140.3     -0.00098  -0.00004  -0.00004   0.12438
 802   71389.2    140.1      0.00068  -0.00003   0.00000   0.00024
 803   71437.3    140.0     -0.00002   0.00612  -0.00384  -0.00002
 804   71509.8    139.8     -0.00110  -0.01060  -0.00995   0.00002
 805   71516.5    139.8      0.00062   0.00001   0.00005  -0.05185
 806   71582.9    139.7      0.00025  -0.00000   0.00000  -0.01550
 807   71583.1    139.7      0.00005   0.00086  -0.00131   0.00004
 808   71621.7    139.6     -0.00077  -0.01918  -0.01489  -0.00000
 809   71662.7    139.5      0.00006  -0.00000   0.00001   0.00255
 810   71681.0    139.5     -0.00015   0.01740  -0.02127  -0.00002
 811   71719.7    139.4     -0.00024   0.00001  -0.00002   0.00009
 812   71740.2    139.4     -0.00068  -0.00004   0.00004  -0.04701
 813   71751.9    139.4      0.00049  -0.04195  -0.03970   0.00000
 814   71804.4    139.3     -0.00055  -0.01615   0.00922  -0.00001
 815   71821.3    139.2     -0.00158  -0.07186   0.12337   0.00015
 816   71826.9    139.2      0.00065  -0.12594   0.23112   0.00025
 817   71831.8    139.2      0.00033   0.00005  -0.00013   0.04833
 818   71863.6    139.2      0.00014   0.03580   0.01431   0.00002
 819   71911.8    139.1     -0.00436   0.08103  -0.15013  -0.00015
 820   71995.9    138.9     -0.00006  -0.00000  -0.00001  -0.00018
 821   72010.2    138.9      0.00003  -0.00000  -0.00002   0.00059
 822   72046.1    138.8     -0.00020  -0.00001   0.00003  -0.03172
 823   72066.0    138.8     -0.00003   0.00578   0.00167   0.00001
 824   72125.1    138.6      0.00074  -0.00029  -0.00018  -0.00316
 825   72126.1    138.6      0.00129   0.03362   0.02175   0.00000
 826   72185.5    138.5      0.01639   0.00006  -0.00013   0.17006
 827   72185.9    138.5     -0.02129  -0.02704  -0.01403   0.00061
 828   72231.2    138.4      0.00001   0.03613   0.01350   0.00001
 829   72239.7    138.4      0.00171   0.03701  -0.08054  -0.00010
 830   72294.2    138.3      0.00040   0.03262  -0.07048  -0.00008
 831   72299.7    138.3      0.00000   0.00003  -0.00008  -0.00016
 832   72333.9    138.2      0.00021   0.03003  -0.04841  -0.00000
 833   72355.9    138.2      0.00122   0.00002   0.00037  -0.35167
 834   72392.7    138.1      0.00728  -0.00002   0.00038  -0.38874
 835   72399.8    138.1     -0.00004  -0.00074  -0.00151   0.00024
 836   72414.5    138.1     -0.00293   0.06692   0.04122  -0.00014
 837   72486.9    138.0      0.00001  -0.00211   0.00503   0.00003
 838   72505.9    137.9     -0.00137   0.19440   0.11573   0.00020
 839   72509.3    137.9     -0.00003  -0.00032  -0.00018   0.00120
 840   72546.8    137.8     -0.00000  -0.00694  -0.00789   0.00001
 841   72567.8    137.8      0.00095  -0.12818  -0.07913  -0.00011
 842   72635.0    137.7      0.00014   0.05985   0.03174   0.00003
 843   72675.7    137.6      0.00194  -0.04993  -0.02642  -0.00000
 844   72725.5    137.5     -0.00035  -0.00001   0.00001  -0.00455
 845   72741.2    137.5     -0.00645   0.05501   0.02768   0.00019
 846   72747.6    137.5      0.00212  -0.00002  -0.00030   0.10829
 847   72775.4    137.4     -0.00007   0.00000   0.00001  -0.00434
 848   72787.2    137.4     -0.00099  -0.06198   0.09474   0.00017
 849   72806.8    137.3      0.00004   0.00687   0.02063   0.00002
 850   72809.9    137.3      0.00094  -0.08512  -0.05097  -0.00005
 851   72816.2    137.3     -0.00133  -0.00007  -0.00007   0.00053
 852   72830.7    137.3     -0.00114  -0.06350   0.12577   0.00020
 853   72853.4    137.3     -0.00040  -0.24400  -0.12258  -0.00012
 854   72889.5    137.2      0.00088   0.04966  -0.09035  -0.00005
 855   72913.3    137.1     -0.00052   0.00002   0.00000   0.05079
 856   72944.5    137.1     -0.00079   0.02278   0.00643   0.00002
 857   72973.2    137.0     -0.00004  -0.04717   0.08077   0.00009
 858   72990.3    137.0     -0.00010  -0.00001   0.00001  -0.00016
 859   73004.9    137.0      0.00157  -0.10232   0.18206   0.00019
 860   73046.9    136.9     -0.00163   0.07145  -0.12069  -0.00013
 861   73127.2    136.7     -0.00003  -0.00001  -0.00001  -0.00069
 862   73155.1    136.7      0.00087  -0.05843   0.11514   0.00012
 863   73212.9    136.6      0.00036  -0.00212  -0.01951  -0.00002
 864   73266.3    136.5     -0.00004  -0.01024  -0.00395   0.00001
 865   73282.4    136.5     -0.00018  -0.00002   0.00000  -0.00032
 866   73307.6    136.4      0.00152  -0.14288   0.11918   0.00013
 867   73328.3    136.4      0.04489  -0.00025   0.00032   0.00168
 868   73331.4    136.4     -0.04281  -0.12479   0.14853   0.00019
 869   73361.8    136.3     -0.00028   0.02289   0.04056   0.00005
 870   73374.2    136.3      0.00036  -0.00001  -0.00006  -0.00098
 871   73411.0    136.2      0.00271   0.09973  -0.07075  -0.00007
 872   73436.2    136.2     -0.00014   0.04504  -0.00564  -0.00000
 873   73489.3    136.1     -0.00484   0.20910   0.19864   0.00022
 874   73528.5    136.0      0.00188   0.02885   0.02755   0.00004
 875   73534.7    136.0     -0.00041   0.00013   0.00009  -0.00213
 876   73556.3    136.0     -0.00002  -0.00403   0.00579   0.00001
 877   73564.5    135.9     -0.03847   0.00045   0.00050  -0.00856
 878   73565.2    135.9      0.04286  -0.07194  -0.06567  -0.00015
 879   73583.6    135.9      0.03915  -0.00050   0.00077   0.00237
 880   73584.8    135.9     -0.04007   0.06035  -0.10139  -0.00007
 881   73610.7    135.8     -0.00160  -0.07949  -0.05251  -0.00003
 882   73613.3    135.8      0.00161  -0.08048   0.10953   0.00012
 883   73621.4    135.8      0.00027  -0.02908   0.05534   0.00007
 884   73649.2    135.8     -0.00005   0.03546   0.01102   0.00001
 885   73660.6    135.8     -0.00218   0.01233   0.01924   0.00005
 886   73667.5    135.7      0.00057   0.00005   0.00004   0.00153
 887   73677.1    135.7      0.00012   0.00268  -0.00474  -0.00003
 888   73718.2    135.7      0.38048   0.04402  -0.11961  -0.00017
 889   73718.6    135.7     -0.38273  -0.00146   0.00382  -0.00100
 890   73735.1    135.6      0.00103  -0.11529  -0.03929  -0.00001
 891   73747.1    135.6      0.00460   0.00009  -0.00005   0.10571
 892   73772.2    135.6      0.00215  -0.29904  -0.17936  -0.00016
 893   73780.5    135.5     -0.00104   0.00015   0.00005   0.01802
 894   73805.2    135.5      0.00052  -0.04055  -0.02406  -0.00005
 895   73806.6    135.5     -0.00003   0.00030   0.00016  -0.00092
 896   73812.2    135.5      0.00011   0.00923  -0.00299  -0.00000
 897   73934.0    135.3     -0.00207   0.04744   0.03220  -0.00003
 898   73986.7    135.2      0.00032  -0.00005  -0.00000  -0.00901
 899   73994.2    135.1      0.00130  -0.00005  -0.00004   0.11044
 900   73997.8    135.1      0.00008  -0.01299   0.02609  -0.00027
 901   74051.4    135.0     -0.00081  -0.00804  -0.00358  -0.00009
 902   74068.3    135.0      0.00179  -0.00002   0.00036  -0.30718
 903   74099.9    135.0     -0.00112   0.05485  -0.09588  -0.00006
 904   74116.9    134.9     -0.00450  -0.04248   0.07697   0.00016
 905   74144.6    134.9     -0.00119   0.00004   0.00001  -0.00543
 906   74155.0    134.9     -0.00004   0.00935   0.00581  -0.00008
 907   74198.0    134.8     -0.00363  -0.00003   0.00050  -0.47445
 908   74218.7    134.7      0.00010  -0.01496   0.02777  -0.00024
 909   74350.9    134.5      0.02307  -0.00026   0.00048  -0.02218
 910   74371.6    134.5      0.00404  -0.24367   0.41111   0.00059
 911   74382.0    134.4     -0.00341   0.00021  -0.00052   0.15176
 912   74403.9    134.4     -0.00073   0.00004  -0.00007  -0.00243
 913   74442.6    134.3     -0.01526  -0.00009   0.00012   0.00244
 914   74527.6    134.2      0.00090  -0.00001   0.00016  -0.10383
 915   74565.3    134.1     -0.00115  -0.00003   0.00007  -0.06253
 916   74598.5    134.1      0.01064   0.13936   0.07979   0.00008
 917   74608.1    134.0     -0.00151  -0.00008  -0.00017   0.00375
 918   74630.5    134.0      0.00409  -0.08071   0.13298   0.00032
 919   74631.5    134.0     -0.01405  -0.00020   0.00029  -0.06175
 920   74634.2    134.0      0.00084   0.00007  -0.00016  -0.00350
 921   74647.3    134.0      0.00105   0.00009  -0.00016   0.00072
 922   74658.0    133.9      0.00069   0.00021   0.00371  -0.00004
 923   74666.1    133.9     -0.00032  -0.01485  -0.00777  -0.00004
 924   74721.2    133.8      0.00003  -0.08825   0.14720   0.00016
 925   74760.1    133.8     -0.00038   0.04851  -0.08141  -0.00009
 926   74774.4    133.7     -0.00004  -0.00001   0.00000  -0.00066
 927   74781.4    133.7     -0.00001  -0.00451  -0.00764  -0.00001
 928   74793.3    133.7     -0.00025  -0.04733  -0.02847  -0.00002
 929   74837.3    133.6      0.00012   0.12119   0.06878   0.00009
 930   74897.0    133.5      0.00118  -0.00001   0.00025  -0.21863
 931   74914.4    133.5     -0.00068   0.02963   0.01605  -0.00000
 932   74925.5    133.5     -0.00001  -0.00060  -0.00089   0.00001
 933   74956.4    133.4     -0.00011  -0.00988   0.01225   0.00020
 934   74959.0    133.4     -0.00127   0.00001  -0.00012   0.06015
 935   74987.1    133.4      0.00060  -0.02776   0.05876   0.00008
 936   75007.1    133.3     -0.01614   0.00017   0.00021  -0.06197
 937   75020.2    133.3      0.00079   0.23904   0.14296   0.00017
 938   75052.2    133.2      0.02005  -0.17010  -0.10167  -0.00009
 939   75074.3    133.2     -0.00155   0.00005  -0.00000  -0.00128
 940   75113.7    133.1     -0.00069   0.01109  -0.02168  -0.00000
 941   75122.2    133.1      0.00002  -0.00111  -0.00233   0.00000
 942   75159.1    133.1     -0.00410   0.00010   0.00014  -0.00039
 943   75169.0    133.0      0.00436  -0.15163  -0.09302  -0.00010
 944   75197.2    133.0      0.00188   0.07870  -0.13246  -0.00014
 945   75212.2    133.0     -0.00403  -0.00001  -0.00004   0.12582
 946   75223.1    132.9     -0.00208   0.00005  -0.00019   0.15873
 947   75257.0    132.9     -0.00001  -0.00944  -0.00412   0.00001
 948   75263.3    132.9     -0.00670  -0.00000   0.00005  -0.00440
 949   75314.0    132.8      0.00068   0.01791  -0.03087  -0.00006
 950   75365.8    132.7      0.00046   0.00110  -0.00148  -0.34161
 951   75368.5    132.7      0.00186  -0.21239   0.36131  -0.00136
 952   75466.0    132.5      0.00239   0.07441  -0.13112  -0.00014
 953   75474.8    132.5      0.00020  -0.02186  -0.00498  -0.00005
 954   75479.0    132.5     -0.00035  -0.00002  -0.00004   0.05906
 955   75517.6    132.4     -0.00012  -0.00001  -0.00004   0.01783
 956   75543.3    132.4     -0.00002  -0.00001  -0.00003   0.03086
 957   75576.9    132.3      0.00032  -0.02481  -0.01311  -0.00003
 958   75640.1    132.2     -0.00044   0.00001  -0.00001   0.00241
 959   75656.2    132.2      0.00021  -0.01471   0.00518   0.00000
 960   75685.4    132.1      0.00061  -0.07257   0.12932  -0.00018
 961   75701.4    132.1      0.00062   0.00006   0.00012  -0.25060
 962   75732.8    132.0     -0.00013  -0.03229  -0.01850   0.00000
 963   75762.7    132.0     -0.00008   0.01210  -0.02282  -0.00006
 964   75786.6    131.9     -0.00046   0.00029   0.00469  -0.00002
 965   75831.5    131.9     -0.00017   0.00002  -0.00003   0.00029
 966   75849.8    131.8     -0.00112  -0.00763   0.06294   0.00008
 967   75851.2    131.8      0.00226   0.11879  -0.18195  -0.00023
 968   75855.3    131.8     -0.00016  -0.00009  -0.00004   0.00057
 969   75862.4    131.8     -0.00053   0.07198  -0.13156  -0.00011
 970   75938.8    131.7      0.00107   0.00000  -0.00004   0.04353
 971   75940.4    131.7     -0.00026  -0.00002  -0.00002   0.00383
 972   75962.2    131.6     -0.00309  -0.06945  -0.04229  -0.00002
 973   75979.3    131.6      0.00017   0.07128   0.04195   0.00005
 974   75981.7    131.6      0.00009  -0.00017  -0.00011   0.00213
 975   76021.5    131.5     -0.00253  -0.00003  -0.00006   0.02709
 976   76029.5    131.5      0.00008  -0.02100   0.04140   0.00008
 977   76095.7    131.4      0.00081  -0.06311   0.10579   0.00010
 978   76112.4    131.4      0.00148  -0.00006   0.00007  -0.06310
 979   76212.2    131.2      0.00077   0.01985  -0.03745  -0.00003
 980   76237.6    131.2     -0.00122  -0.03714   0.06114   0.00008
 981   76261.5    131.1     -0.00062   0.00002   0.00002   0.00155
 982   76310.1    131.0     -0.00123  -0.05313  -0.03250  -0.00001
 983   76312.1    131.0      0.00040   0.00006   0.00005   0.01262
 984   76348.9    131.0     -0.00002  -0.00002  -0.00000   0.00041
 985   76371.8    130.9     -0.00009  -0.00001  -0.00001   0.02095
 986   76413.5    130.9     -0.00200   0.03724   0.02119  -0.00002
 987   76452.4    130.8     -0.00048  -0.00004  -0.00004   0.00249
 988   76460.0    130.8      0.00010   0.00001   0.00002  -0.02172
 989   76547.5    130.6      0.00076  -0.10607   0.18026   0.00018
 990   76612.5    130.5     -0.00001   0.00121  -0.00171  -0.00001
 991   76672.0    130.4     -0.00000   0.00000  -0.00000  -0.00159
 992   76682.5    130.4      0.00003  -0.00000  -0.00006   0.06513
 993   76717.0    130.3      0.00059   0.00001  -0.00000   0.00757
 994   76759.9    130.3     -0.00006  -0.00002  -0.00001   0.00106
 995   76779.4    130.2     -0.00000   0.00037  -0.00171   0.00002
 996   76864.6    130.1     -0.00085   0.15650   0.09480   0.00015
 997   76881.2    130.1      0.00024  -0.00003   0.00001  -0.00825
 998   76937.1    130.0     -0.00230   0.00003  -0.00022   0.22561
 999   76968.6    129.9     -0.00015  -0.01875   0.02727  -0.00003
 1000   76999.5    129.9     -0.00624   0.00008   0.00048  -0.42776

Total run time:    30881.190 sec

           *** ORCA-CIS/TD-DFT FINISHED WITHOUT ERROR ***

Maximum memory used throughout the entire CIS-calculation: 3869.3 MB

-----------------------
CIS/TD-DFT TOTAL ENERGY
-----------------------

    E(SCF)  =   -917.404295203 Eh
    DE(CIS) =      0.048189818 Eh (Root  1)
    ----------------------------- ---------
    E(tot)  =   -917.356105385 Eh



-------------------------------------------------------------------------------
                          DFT DISPERSION CORRECTION                            
                                                                               
                                 DFTD4 V2.5                                    
-------------------------------------------------------------------------------
The B3LYP functional is recognized
Active option DFTDOPT                   ...         5   

Starting D4
-------------------------   ----------------
Dispersion correction           -0.095097810
-------------------------   ----------------


-------------------------   --------------------
FINAL SINGLE POINT ENERGY      -917.451203195461
-------------------------   --------------------


                            ***************************************
                            *     ORCA property calculations      *
                            ***************************************

                                    ---------------------
                                    Active property flags
                                    ---------------------
   (+) Dipole Moment


------------------------------------------------------------------------------
                       ORCA ELECTRIC PROPERTIES CALCULATION
------------------------------------------------------------------------------

Dipole Moment Calculation                       ... on
Quadrupole Moment Calculation                   ... off
Polarizability Calculation                      ... off
GBWName                                         ... Stone-Wales_defect_loss_six.gbw
Electron density                                ... Stone-Wales_defect_loss_six.scfp
The origin for moment calculation is the CENTER OF MASS  = (-0.005589,  0.022680  0.014118)

-------------
DIPOLE MOMENT
-------------
                                X             Y             Z
Electronic contribution:      0.12671      -0.21290      -0.00026
Nuclear contribution   :     -0.21679       0.36681       0.00041
                        -----------------------------------------
Total Dipole Moment    :     -0.09008       0.15392       0.00016
                        -----------------------------------------
Magnitude (a.u.)       :      0.17834
Magnitude (Debye)      :      0.45330



--------------------
Rotational spectrum 
--------------------
 
Rotational constants in cm-1:     0.013825     0.009713     0.005705 
Rotational constants in MHz :   414.467146   291.177927   171.026043 

 Dipole components along the rotational axes: 
x,y,z [a.u.] :     0.178338     0.000857     0.000002 
x,y,z [Debye]:     0.453299     0.002179     0.000006 

 

Timings for individual modules:

Sum of individual times         ...    32841.356 sec (= 547.356 min)
GTO integral calculation        ...        0.790 sec (=   0.013 min)   0.0 %
SCF iterations                  ...     1959.199 sec (=  32.653 min)   6.0 %
CIS module                      ...    30881.367 sec (= 514.689 min)  94.0 %
                             ****ORCA TERMINATED NORMALLY****
TOTAL RUN TIME: 0 days 9 hours 7 minutes 22 seconds 244 msec
