
                                 *****************
                                 * O   R   C   A *
                                 *****************

                                            #,                                       
                                            ###                                      
                                            ####                                     
                                            #####                                    
                                            ######                                   
                                           ########,                                 
                                     ,,################,,,,,                         
                               ,,#################################,,                 
                          ,,##########################################,,             
                       ,#########################################, ''#####,          
                    ,#############################################,,   '####,        
                  ,##################################################,,,,####,       
                ,###########''''           ''''###############################       
              ,#####''   ,,,,##########,,,,          '''####'''          '####       
            ,##' ,,,,###########################,,,                        '##       
           ' ,,###''''                  '''############,,,                           
         ,,##''                                '''############,,,,        ,,,,,,###''
      ,#''                                            '''#######################'''  
     '                                                          ''''####''''         
             ,#######,   #######,   ,#######,      ##                                
            ,#'     '#,  ##    ##  ,#'     '#,    #''#        ######   ,####,        
            ##       ##  ##   ,#'  ##            #'  '#       #        #'  '#        
            ##       ##  #######   ##           ,######,      #####,   #    #        
            '#,     ,#'  ##    ##  '#,     ,#' ,#      #,         ##   #,  ,#        
             '#######'   ##     ##  '#######'  #'      '#     #####' # '####'        



                  #######################################################
                  #                        -***-                        #
                  #          Department of theory and spectroscopy      #
                  #    Directorship and core code : Frank Neese         #
                  #        Max Planck Institute fuer Kohlenforschung    #
                  #                Kaiser Wilhelm Platz 1               #
                  #                 D-45470 Muelheim/Ruhr               #
                  #                      Germany                        #
                  #                                                     #
                  #                  All rights reserved                #
                  #                        -***-                        #
                  #######################################################



                         Program Version 5.0.4 -  RELEASE  -

 With contributions from (in alphabetic order):
   Daniel Aravena         : Magnetic Suceptibility
   Michael Atanasov       : Ab Initio Ligand Field Theory (pilot matlab implementation)
   Alexander A. Auer      : GIAO ZORA, VPT2 properties, NMR spectrum
   Ute Becker             : Parallelization
   Giovanni Bistoni       : ED, misc. LED, open-shell LED, HFLD
   Martin Brehm           : Molecular dynamics
   Dmytro Bykov           : SCF Hessian
   Vijay G. Chilkuri      : MRCI spin determinant printing, contributions to CSF-ICE
   Dipayan Datta          : RHF DLPNO-CCSD density
   Achintya Kumar Dutta   : EOM-CC, STEOM-CC
   Dmitry Ganyushin       : Spin-Orbit,Spin-Spin,Magnetic field MRCI
   Miquel Garcia          : C-PCM and meta-GGA Hessian, CC/C-PCM, Gaussian charge scheme
   Yang Guo               : DLPNO-NEVPT2, F12-NEVPT2, CIM, IAO-localization
   Andreas Hansen         : Spin unrestricted coupled pair/coupled cluster methods
   Benjamin Helmich-Paris : MC-RPA, TRAH-SCF, COSX integrals
   Lee Huntington         : MR-EOM, pCC
   Robert Izsak           : Overlap fitted RIJCOSX, COSX-SCS-MP3, EOM
   Marcus Kettner         : VPT2
   Christian Kollmar      : KDIIS, OOCD, Brueckner-CCSD(T), CCSD density, CASPT2, CASPT2-K
   Simone Kossmann        : Meta GGA functionals, TD-DFT gradient, OOMP2, MP2 Hessian
   Martin Krupicka        : Initial AUTO-CI
   Lucas Lang             : DCDCAS
   Marvin Lechner         : AUTO-CI (C++ implementation), FIC-MRCC
   Dagmar Lenk            : GEPOL surface, SMD
   Dimitrios Liakos       : Extrapolation schemes; Compound Job, initial MDCI parallelization
   Dimitrios Manganas     : Further ROCIS development; embedding schemes
   Dimitrios Pantazis     : SARC Basis sets
   Anastasios Papadopoulos: AUTO-CI, single reference methods and gradients
   Taras Petrenko         : DFT Hessian,TD-DFT gradient, ASA, ECA, R-Raman, ABS, FL, XAS/XES, NRVS
   Peter Pinski           : DLPNO-MP2, DLPNO-MP2 Gradient
   Christoph Reimann      : Effective Core Potentials
   Marius Retegan         : Local ZFS, SOC
   Christoph Riplinger    : Optimizer, TS searches, QM/MM, DLPNO-CCSD(T), (RO)-DLPNO pert. Triples
   Tobias Risthaus        : Range-separated hybrids, TD-DFT gradient, RPA, STAB
   Michael Roemelt        : Original ROCIS implementation
   Masaaki Saitow         : Open-shell DLPNO-CCSD energy and density
   Barbara Sandhoefer     : DKH picture change effects
   Avijit Sen             : IP-ROCIS
   Kantharuban Sivalingam : CASSCF convergence, NEVPT2, FIC-MRCI
   Bernardo de Souza      : ESD, SOC TD-DFT
   Georgi Stoychev        : AutoAux, RI-MP2 NMR, DLPNO-MP2 response
   Willem Van den Heuvel  : Paramagnetic NMR
   Boris Wezisla          : Elementary symmetry handling
   Frank Wennmohs         : Technical directorship


 We gratefully acknowledge several colleagues who have allowed us to
 interface, adapt or use parts of their codes:
   Stefan Grimme, W. Hujo, H. Kruse, P. Pracht,  : VdW corrections, initial TS optimization,
                  C. Bannwarth, S. Ehlert          DFT functionals, gCP, sTDA/sTD-DF
   Ed Valeev, F. Pavosevic, A. Kumar             : LibInt (2-el integral package), F12 methods
   Garnet Chan, S. Sharma, J. Yang, R. Olivares  : DMRG
   Ulf Ekstrom                                   : XCFun DFT Library
   Mihaly Kallay                                 : mrcc  (arbitrary order and MRCC methods)
   Jiri Pittner, Ondrej Demel                    : Mk-CCSD
   Frank Weinhold                                : gennbo (NPA and NBO analysis)
   Christopher J. Cramer and Donald G. Truhlar   : smd solvation model
   Lars Goerigk                                  : TD-DFT with DH, B97 family of functionals
   V. Asgeirsson, H. Jonsson                     : NEB implementation
   FAccTs GmbH                                   : IRC, NEB, NEB-TS, DLPNO-Multilevel, CI-OPT
                                                   MM, QMMM, 2- and 3-layer-ONIOM, Crystal-QMMM,
                                                   LR-CPCM, SF, NACMEs, symmetry and pop. for TD-DFT,
                                                   nearIR, NL-DFT gradient (VV10), updates on ESD,
                                                   ML-optimized integration grids
   S Lehtola, MJT Oliveira, MAL Marques          : LibXC Library
   Liviu Ungur et al                             : ANISO software


 Your calculation uses the libint2 library for the computation of 2-el integrals
 For citations please refer to: http://libint.valeyev.net

 Your ORCA version has been built with support for libXC version: 5.1.0
 For citations please refer to: https://tddft.org/programs/libxc/

 This ORCA versions uses:
   CBLAS   interface :  Fast vector & matrix operations
   LAPACKE interface :  Fast linear algebra routines
   Shared memory     :  Shared parallel matrices


Your calculation utilizes the atom-pairwise dispersion correction
based on tight binding partial charges (D4)
Cite in your paper:
E.Caldeweyher, C.Bannwarth, S.Grimme, J.Chem.Phys., (2017), 147, 034112.
E.Caldeweyher, S.Ehlert, A.Hansen, H.Neugebauer, S.Grimme, J.Chem.Phys., (2018), in progress.
   

================================================================================

----- Orbital basis set information -----
Your calculation utilizes the basis: 6-311+G**
   H, Li - Ne  : R. Krishnan, J. S. Binkley, R. Seeger and J. A. Pople, J. Chem. Phys. 72, 650 (1980).
   Na - Ar     : A. D. McLean and G. S. Chandler J. Chem. Phys. 72, 5639, (1980).
   K  - Ca     : J.-P. Blaudeau, M. P. McGrath, L. A. Curtiss and L. Radom, J. Chem. Phys. 107, 5016 (1997).
   Ga - Kr     : L. A. Curtiss, M. P. McGrath, J.-P. Blandeau, N. E. Davis, R. C. Binning and L. Radom, J. Chem. Phys. 103, 6104 (1995).
   Pol./Diff.
   H, Li - Cl  : T. Clark, J. Chandrasekhar and P. v. R. Schleyer, J. Comp. Chem. 4, 294 (1983).
   H - Ne      : M. J. Frisch, J. A. Pople and J. S. Binkley, J. Chem. Phys. 80, 3265 (1984).

----- AuxJ basis set information -----
Your calculation utilizes the auxiliary basis: def2/J
   F. Weigend, Phys. Chem. Chem. Phys. 8, 1057 (2006).

================================================================================
                                        WARNINGS
                       Please study these warnings very carefully!
================================================================================

INFO   : Checking CIS options ...

WARNING: CIS/ROCIS methods need fully converged wavefunctions
  ===> : Setting SCFConvForced true
         You can overwrite this default with %scf ConvForced false 


INFO   : the flag for use of the SHARK integral package has been found!

================================================================================
                                       INPUT FILE
================================================================================
NAME = Stone-Wales_defect_no_loss.inp
|  1> ! b3lyp 6-311+g** d4 
|  2> 
|  3> %maxcore 5000
|  4> %pal
|  5> nprocs 7
|  6> end
|  7> 
|  8> %tddft
|  9>   nroots 1000
| 10>   end
| 11>   
| 12> * xyz 0 1
| 13>   C   2.73410372137963     -3.23018255987493      0.00419616177509
| 14>   C   1.52725072905496     -3.94473050757940      0.00346882820659
| 15>   C   0.44219008202700     -3.05528656366903      0.00437011116666
| 16>   C   -0.92261980803548     -3.44336940901410      0.00396349111599
| 17>   C   -2.07818340432981     -2.70151399109656      0.00470200851665
| 18>   C   -2.20929052781301     -1.28038676087921      0.00615499592417
| 19>   C   -3.51550099485617     -0.66459432681038      0.00679577903241
| 20>   C   -3.73602024157363      0.69601770425336      0.00819040814841
| 21>   C   -2.63426543077348      1.60731163650560      0.00910852840959
| 22>   C   -2.60078453308585      3.03714458149786      0.01056444701729
| 23>   C   -1.40610009864572      3.74500002720139      0.01126433582547
| 24>   C   -0.13591676726732      3.08751930669542      0.01058740345448
| 25>   C   1.19268612757949      3.61612136967877      0.01112625389173
| 26>   C   2.28009913555574      2.76923325942513      0.01027722043913
| 27>   C   2.19292741053189      1.32762683664310      0.00881579400902
| 28>   C   3.37614397237973      0.52966148650023      0.00803522409344
| 29>   C   3.47168050451492     -0.84033147499282      0.00664974610762
| 30>   C   2.47588440839367     -1.85101187768987      0.00560224734179
| 31>   C   0.32590966091943     -0.54028389890688      0.00690863901024
| 32>   C   -1.39238001302065      0.98397127618347      0.00846133878299
| 33>   C   -1.12997464062303     -0.39122806609289      0.00705794052931
| 34>   C   1.02032923552624     -1.71241877494839      0.00573656149632
| 35>   H   3.72298460464634     -3.66946779522506      0.00374964634656
| 36>   H   1.43680835592605     -5.02303348273594      0.00236863924038
| 37>   H   -1.06569188401657     -4.52171226453978      0.00286189550504
| 38>   H   -3.00928030088838     -3.26011265306035      0.00412204352540
| 39>   H   -4.37365352941185     -1.32874135890470      0.00612689005542
| 40>   H   -4.75487290198003      1.06942714582969      0.00858270579149
| 41>   H   -3.53521138208037      3.58872704488789      0.01114287484542
| 42>   H   -1.44106119395834      4.82952641718806      0.01236953876004
| 43>   H   1.35458572554270      4.68910171334580      0.01221426607619
| 44>   H   3.27467362964550      3.20321337383766      0.01072768272079
| 45>   H   4.31367968755968      1.07737509859570      0.00860789115987
| 46>   H   4.48637580652361     -1.23239371009040      0.00627018218861
| 47>   C   0.89451567637412      0.80820486500872      0.00827330091894
| 48>   C   -0.18561082172101      1.69893633283286      0.00917497857150
| 49> **                         ****END OF INPUT****
================================================================================

                       ****************************
                       * Single Point Calculation *
                       ****************************

---------------------------------
CARTESIAN COORDINATES (ANGSTROEM)
---------------------------------
  C      2.734104   -3.230183    0.004196
  C      1.527251   -3.944731    0.003469
  C      0.442190   -3.055287    0.004370
  C     -0.922620   -3.443369    0.003963
  C     -2.078183   -2.701514    0.004702
  C     -2.209291   -1.280387    0.006155
  C     -3.515501   -0.664594    0.006796
  C     -3.736020    0.696018    0.008190
  C     -2.634265    1.607312    0.009109
  C     -2.600785    3.037145    0.010564
  C     -1.406100    3.745000    0.011264
  C     -0.135917    3.087519    0.010587
  C      1.192686    3.616121    0.011126
  C      2.280099    2.769233    0.010277
  C      2.192927    1.327627    0.008816
  C      3.376144    0.529661    0.008035
  C      3.471681   -0.840331    0.006650
  C      2.475884   -1.851012    0.005602
  C      0.325910   -0.540284    0.006909
  C     -1.392380    0.983971    0.008461
  C     -1.129975   -0.391228    0.007058
  C      1.020329   -1.712419    0.005737
  H      3.722985   -3.669468    0.003750
  H      1.436808   -5.023033    0.002369
  H     -1.065692   -4.521712    0.002862
  H     -3.009280   -3.260113    0.004122
  H     -4.373654   -1.328741    0.006127
  H     -4.754873    1.069427    0.008583
  H     -3.535211    3.588727    0.011143
  H     -1.441061    4.829526    0.012370
  H      1.354586    4.689102    0.012214
  H      3.274674    3.203213    0.010728
  H      4.313680    1.077375    0.008608
  H      4.486376   -1.232394    0.006270
  C      0.894516    0.808205    0.008273
  C     -0.185611    1.698936    0.009175

----------------------------
CARTESIAN COORDINATES (A.U.)
----------------------------
  NO LB      ZA    FRAG     MASS         X           Y           Z
   0 C     6.0000    0    12.011    5.166707   -6.104160    0.007930
   1 C     6.0000    0    12.011    2.886086   -7.454460    0.006555
   2 C     6.0000    0    12.011    0.835618   -5.773655    0.008258
   3 C     6.0000    0    12.011   -1.743499   -6.507025    0.007490
   4 C     6.0000    0    12.011   -3.927197   -5.105122    0.008886
   5 C     6.0000    0    12.011   -4.174954   -2.419580    0.011631
   6 C     6.0000    0    12.011   -6.643334   -1.255901    0.012842
   7 C     6.0000    0    12.011   -7.060055    1.315283    0.015478
   8 C     6.0000    0    12.011   -4.978040    3.037379    0.017213
   9 C     6.0000    0    12.011   -4.914771    5.739371    0.019964
  10 C     6.0000    0    12.011   -2.657144    7.077024    0.021287
  11 C     6.0000    0    12.011   -0.256845    5.834566    0.020007
  12 C     6.0000    0    12.011    2.253850    6.833479    0.021026
  13 C     6.0000    0    12.011    4.308763    5.233092    0.019421
  14 C     6.0000    0    12.011    4.144032    2.508851    0.016659
  15 C     6.0000    0    12.011    6.379987    1.000915    0.015184
  16 C     6.0000    0    12.011    6.560525   -1.587996    0.012566
  17 C     6.0000    0    12.011    4.678743   -3.497906    0.010587
  18 C     6.0000    0    12.011    0.615880   -1.020989    0.013055
  19 C     6.0000    0    12.011   -2.631217    1.859436    0.015990
  20 C     6.0000    0    12.011   -2.135343   -0.739314    0.013338
  21 C     6.0000    0    12.011    1.928143   -3.236003    0.010841
  22 H     1.0000    0     1.008    7.035421   -6.934289    0.007086
  23 H     1.0000    0     1.008    2.715174   -9.492158    0.004476
  24 H     1.0000    0     1.008   -2.013866   -8.544798    0.005408
  25 H     1.0000    0     1.008   -5.686716   -6.160720    0.007790
  26 H     1.0000    0     1.008   -8.265007   -2.510957    0.011578
  27 H     1.0000    0     1.008   -8.985408    2.020924    0.016219
  28 H     1.0000    0     1.008   -6.680581    6.781711    0.021057
  29 H     1.0000    0     1.008   -2.723211    9.126482    0.023375
  30 H     1.0000    0     1.008    2.559796    8.861118    0.023082
  31 H     1.0000    0     1.008    6.188236    6.053196    0.020272
  32 H     1.0000    0     1.008    8.151673    2.035944    0.016267
  33 H     1.0000    0     1.008    8.478022   -2.328887    0.011849
  34 C     6.0000    0    12.011    1.690390    1.527286    0.015634
  35 C     6.0000    0    12.011   -0.350754    3.210524    0.017338

--------------------------------
INTERNAL COORDINATES (ANGSTROEM)
--------------------------------
 C      0   0   0     0.000000000000     0.00000000     0.00000000
 C      1   0   0     1.402523954756     0.00000000     0.00000000
 C      2   1   0     1.403021008181   110.02914529     0.00000000
 C      3   2   1     1.418913139062   124.78481227   179.99948496
 C      4   3   2     1.373199632822   131.42702347   180.00063382
 C      5   4   3     1.427162847564   127.97084050     0.00000000
 C      6   5   4     1.444086741395   120.51175125   180.00157207
 C      7   6   5     1.378367070935   124.44688609   179.99986576
 C      8   7   6     1.429797586033   120.38909360     0.00000000
 C      9   8   7     1.430225625835   130.93655864   179.99966725
 C     10   9   8     1.388643481874   121.98831761   180.00049598
 C     11  10   9     1.430261182926   121.98577190     0.00000000
 C     12  11  10     1.429897228316   130.93690604   180.00112036
 C     13  12  11     1.378291421312   120.39237714   179.99895657
 C     14  13  12     1.444240327514   124.45145618     0.00000000
 C     15  14  13     1.427147764441   120.53550309   180.00084337
 C     16  15  14     1.373320742967   127.98493994   180.00004014
 C      1   2   3     1.403136116446   110.02415213     0.00000000
 C      3   2   1     2.517690605340   131.98927812     0.00000000
 C      9   8   7     1.389544175076   113.75134081     0.00000000
 C      6   5   4     1.398401510355   124.21134812     0.00000000
 C     19   3   2     1.362394982006    27.99701662     0.00000000
 H      1   2   3     1.082061513345   125.41927447   180.00013623
 H      2   1   3     1.082089801959   125.42318764   179.99965443
 H      4   3   2     1.087793246211   113.43080571     0.00000000
 H      5   4   3     1.085805798607   116.33902141   179.99968629
 H      7   6   5     1.085134784355   117.02193626     0.00000000
 H      8   7   6     1.085124651168   119.33396841   180.00011692
 H     10   9   8     1.085079298770   119.21153664     0.00000000
 H     11  10   9     1.085090314323   118.80056590   179.99998920
 H     13  12  11     1.085126481792   120.27629442     0.00000000
 H     14  13  12     1.085134722933   118.51422947   180.00051048
 H     16  15  14     1.085800969819   115.71039920     0.00000000
 H     17  16  15     1.087804898030   115.11481777   179.99963932
 C     15  14  13     1.398453613930   115.26397166     0.00000000
 C     12  11  10     1.389472622722   115.31769704     0.00000000

---------------------------
INTERNAL COORDINATES (A.U.)
---------------------------
 C      0   0   0     0.000000000000     0.00000000     0.00000000
 C      1   0   0     2.650386170754     0.00000000     0.00000000
 C      2   1   0     2.651325465601   110.02914529     0.00000000
 C      3   2   1     2.681357240650   124.78481227   179.99948496
 C      4   3   2     2.594971233235   131.42702347   180.00063382
 C      5   4   3     2.696946930402   127.97084050     0.00000000
 C      6   5   4     2.728928454863   120.51175125   180.00157207
 C      7   6   5     2.604736276083   124.44688609   179.99986576
 C      8   7   6     2.701925864544   120.38909360     0.00000000
 C      9   8   7     2.702734742544   130.93655864   179.99966725
 C     10   9   8     2.624155878396   121.98831761   180.00049598
 C     11  10   9     2.702801935709   121.98577190     0.00000000
 C     12  11  10     2.702114161170   130.93690604   180.00112036
 C     13  12  11     2.604593319013   120.39237714   179.99895657
 C     14  13  12     2.729218690566   124.45145618     0.00000000
 C     15  14  13     2.696918427432   120.53550309   180.00084337
 C     16  15  14     2.595200098240   127.98493994   180.00004014
 C      1   2   3     2.651542988696   110.02415213     0.00000000
 C      3   2   1     4.757745734039   131.98927812     0.00000000
 C      9   8   7     2.625857941879   113.75134081     0.00000000
 C      6   5   4     2.642595879833   124.21134812     0.00000000
 C     19   3   2     2.574553402220    27.99701662     0.00000000
 H      1   2   3     2.044799920279   125.41927447   180.00013623
 H      2   1   3     2.044853378012   125.42318764   179.99965443
 H      4   3   2     2.055631325667   113.43080571     0.00000000
 H      5   4   3     2.051875593990   116.33902141   179.99968629
 H      7   6   5     2.050607560822   117.02193626     0.00000000
 H      8   7   6     2.050588411875   119.33396841   180.00011692
 H     10   9   8     2.050502708263   119.21153664     0.00000000
 H     11  10   9     2.050523524640   118.80056590   179.99998920
 H     13  12  11     2.050591871253   120.27629442     0.00000000
 H     14  13  12     2.050607444753   118.51422947   180.00051048
 H     16  15  14     2.051866468904   115.71039920     0.00000000
 H     17  16  15     2.055653344414   115.11481777   179.99963932
 C     15  14  13     2.642694341320   115.26397166     0.00000000
 C     12  11  10     2.625722727525   115.31769704     0.00000000

---------------------
BASIS SET INFORMATION
---------------------
There are 2 groups of distinct atoms

 Group   1 Type C   : 12s6p1d contracted to 5s4p1d pattern {63111/3111/1}
 Group   2 Type H   : 5s1p contracted to 3s1p pattern {311/1}

Atom   0C    basis set group =>   1
Atom   1C    basis set group =>   1
Atom   2C    basis set group =>   1
Atom   3C    basis set group =>   1
Atom   4C    basis set group =>   1
Atom   5C    basis set group =>   1
Atom   6C    basis set group =>   1
Atom   7C    basis set group =>   1
Atom   8C    basis set group =>   1
Atom   9C    basis set group =>   1
Atom  10C    basis set group =>   1
Atom  11C    basis set group =>   1
Atom  12C    basis set group =>   1
Atom  13C    basis set group =>   1
Atom  14C    basis set group =>   1
Atom  15C    basis set group =>   1
Atom  16C    basis set group =>   1
Atom  17C    basis set group =>   1
Atom  18C    basis set group =>   1
Atom  19C    basis set group =>   1
Atom  20C    basis set group =>   1
Atom  21C    basis set group =>   1
Atom  22H    basis set group =>   2
Atom  23H    basis set group =>   2
Atom  24H    basis set group =>   2
Atom  25H    basis set group =>   2
Atom  26H    basis set group =>   2
Atom  27H    basis set group =>   2
Atom  28H    basis set group =>   2
Atom  29H    basis set group =>   2
Atom  30H    basis set group =>   2
Atom  31H    basis set group =>   2
Atom  32H    basis set group =>   2
Atom  33H    basis set group =>   2
Atom  34C    basis set group =>   1
Atom  35C    basis set group =>   1
---------------------------------
AUXILIARY/J BASIS SET INFORMATION
---------------------------------
There are 2 groups of distinct atoms

 Group   1 Type C   : 12s5p4d2f1g contracted to 6s4p3d1f1g pattern {711111/2111/211/2/1}
 Group   2 Type H   : 5s2p1d contracted to 3s1p1d pattern {311/2/1}

Atom   0C    basis set group =>   1
Atom   1C    basis set group =>   1
Atom   2C    basis set group =>   1
Atom   3C    basis set group =>   1
Atom   4C    basis set group =>   1
Atom   5C    basis set group =>   1
Atom   6C    basis set group =>   1
Atom   7C    basis set group =>   1
Atom   8C    basis set group =>   1
Atom   9C    basis set group =>   1
Atom  10C    basis set group =>   1
Atom  11C    basis set group =>   1
Atom  12C    basis set group =>   1
Atom  13C    basis set group =>   1
Atom  14C    basis set group =>   1
Atom  15C    basis set group =>   1
Atom  16C    basis set group =>   1
Atom  17C    basis set group =>   1
Atom  18C    basis set group =>   1
Atom  19C    basis set group =>   1
Atom  20C    basis set group =>   1
Atom  21C    basis set group =>   1
Atom  22H    basis set group =>   2
Atom  23H    basis set group =>   2
Atom  24H    basis set group =>   2
Atom  25H    basis set group =>   2
Atom  26H    basis set group =>   2
Atom  27H    basis set group =>   2
Atom  28H    basis set group =>   2
Atom  29H    basis set group =>   2
Atom  30H    basis set group =>   2
Atom  31H    basis set group =>   2
Atom  32H    basis set group =>   2
Atom  33H    basis set group =>   2
Atom  34C    basis set group =>   1
Atom  35C    basis set group =>   1


           ************************************************************
           *        Program running with 7 parallel MPI-processes     *
           *              working on a common directory               *
           ************************************************************
------------------------------------------------------------------------------
                           ORCA GTO INTEGRAL CALCULATION
                           -- RI-GTO INTEGRALS CHOSEN --
------------------------------------------------------------------------------
------------------------------------------------------------------------------
                   ___                                                        
                  /   \      - P O W E R E D   B Y -                         
                 /     \                                                     
                 |  |  |   _    _      __       _____    __    __             
                 |  |  |  | |  | |    /  \     |  _  \  |  |  /  |          
                  \  \/   | |  | |   /    \    | | | |  |  | /  /          
                 / \  \   | |__| |  /  /\  \   | |_| |  |  |/  /          
                |  |  |   |  __  | /  /__\  \  |    /   |      \           
                |  |  |   | |  | | |   __   |  |    \   |  |\   \          
                \     /   | |  | | |  |  |  |  | |\  \  |  | \   \       
                 \___/    |_|  |_| |__|  |__|  |_| \__\ |__|  \__/        
                                                                              
                      - O R C A' S   B I G   F R I E N D -                    
                                      &                                       
                       - I N T E G R A L  F E E D E R -                       
                                                                              
 v1 FN, 2020, v2 2021                                                         
------------------------------------------------------------------------------


Reading SHARK input file Stone-Wales_defect_no_loss.SHARKINP.tmp ... ok
----------------------
SHARK INTEGRAL PACKAGE
----------------------

Number of atoms                             ...     36
Number of basis functions                   ...    600
Number of shells                            ...    288
Maximum angular momentum                    ...      2
Integral batch strategy                     ... SHARK/LIBINT Hybrid
RI-J (if used) integral strategy            ... SPLIT-RIJ (Revised 2003 algorithm where possible)
Printlevel                                  ...      1
Contraction scheme used                     ... SEGMENTED contraction
Coulomb Range Separation                    ... NOT USED
Exchange Range Separation                   ... NOT USED
Finite Nucleus Model                        ... NOT USED
Auxiliary Coulomb fitting basis             ... AVAILABLE
   # of basis functions in Aux-J            ...   1308
   # of shells in Aux-J                     ...    420
   Maximum angular momentum in Aux-J        ...      4
Auxiliary J/K fitting basis                 ... NOT available
Auxiliary Correlation fitting basis         ... NOT available
Auxiliary 'external' fitting basis          ... NOT available
Integral threshold                          ...     1.000000e-10
Primitive cut-off                           ...     1.000000e-11
Primitive pair pre-selection threshold      ...     1.000000e-11

Calculating pre-screening integrals         ... done (  0.0 sec) Dimension = 288
Organizing shell pair data                  ... done (  0.2 sec)
Shell pair information
Total number of shell pairs                 ...     41616
Shell pairs after pre-screening             ...     32643
Total number of primitive shell pairs       ...    140196
Primitive shell pairs kept                  ...     72506
          la=0 lb=0:   9166 shell pairs
          la=1 lb=0:  13509 shell pairs
          la=1 lb=1:   4997 shell pairs
          la=2 lb=0:   2713 shell pairs
          la=2 lb=1:   2032 shell pairs
          la=2 lb=2:    226 shell pairs

Calculating one electron integrals          ... done (  0.0 sec)
Calculating RI/J V-Matrix + Cholesky decomp.... done (  0.1 sec)
Calculating Nuclear repulsion               ... done (  0.0 sec) ENN=   1820.703960929764 Eh

SHARK setup successfully completed in   0.7 seconds

Maximum memory used throughout the entire GTOINT-calculation: 43.5 MB


           ************************************************************
           *        Program running with 7 parallel MPI-processes     *
           *              working on a common directory               *
           ************************************************************
-------------------------------------------------------------------------------
                                 ORCA SCF
-------------------------------------------------------------------------------

------------
SCF SETTINGS
------------
Hamiltonian:
 Density Functional     Method          .... DFT(GTOs)
 Exchange Functional    Exchange        .... B88
   X-Alpha parameter    XAlpha          ....  0.666667
   Becke's b parameter  XBeta           ....  0.004200
 Correlation Functional Correlation     .... LYP
 LDA part of GGA corr.  LDAOpt          .... VWN-5
 Gradients option       PostSCFGGA      .... off
 Hybrid DFT is turned on
   Fraction HF Exchange ScalHFX         ....  0.200000
   Scaling of DF-GGA-X  ScalDFX         ....  0.720000
   Scaling of DF-GGA-C  ScalDFC         ....  0.810000
   Scaling of DF-LDA-C  ScalLDAC        ....  1.000000
   Perturbative correction              ....  0.000000
   Density functional embedding theory  .... OFF
   NL short-range parameter             ....  4.800000
 RI-approximation to the Coulomb term is turned on
   Number of AuxJ basis functions       .... 1308
   RIJ-COSX (HFX calculated with COS-X)).... on


General Settings:
 Integral files         IntName         .... Stone-Wales_defect_no_loss
 Hartree-Fock type      HFTyp           .... RHF
 Total Charge           Charge          ....    0
 Multiplicity           Mult            ....    1
 Number of Electrons    NEL             ....  156
 Basis Dimension        Dim             ....  600
 Nuclear Repulsion      ENuc            ....   1820.7039609298 Eh

Convergence Acceleration:
 DIIS                   CNVDIIS         .... on
   Start iteration      DIISMaxIt       ....    12
   Startup error        DIISStart       ....  0.200000
   # of expansion vecs  DIISMaxEq       ....     5
   Bias factor          DIISBfac        ....   1.050
   Max. coefficient     DIISMaxC        ....  10.000
 Trust-Rad. Augm. Hess. CNVTRAH         .... auto
   Auto Start mean grad. ratio tolernc. ....  1.125000
   Auto Start start iteration           ....    20
   Auto Start num. interpolation iter.  ....    10
   Max. Number of Micro iterations      ....    16
   Max. Number of Macro iterations      .... Maxiter - #DIIS iter
   Number of Davidson start vectors     ....     2
   Converg. threshold I  (grad. norm)   ....   5.000e-05
   Converg. threshold II (energy diff.) ....   1.000e-06
   Grad. Scal. Fac. for Micro threshold ....   0.100
   Minimum threshold for Micro iter.    ....   0.010
   NR start threshold (gradient norm)   ....   0.001
   Initial trust radius                 ....   0.400
   Minimum AH scaling param. (alpha)    ....   1.000
   Maximum AH scaling param. (alpha)    .... 1000.000
   Orbital update algorithm             .... Taylor
   White noise on init. David. guess    .... on
   Maximum white noise                  ....   0.010
   Quad. conv. algorithm                .... NR
 SOSCF                  CNVSOSCF        .... on
   Start iteration      SOSCFMaxIt      ....   150
   Startup grad/error   SOSCFStart      ....  0.003300
 Level Shifting         CNVShift        .... on
   Level shift para.    LevelShift      ....    0.2500
   Turn off err/grad.   ShiftErr        ....    0.0010
 Zerner damping         CNVZerner       .... off
 Static damping         CNVDamp         .... on
   Fraction old density DampFac         ....    0.7000
   Max. Damping (<1)    DampMax         ....    0.9800
   Min. Damping (>=0)   DampMin         ....    0.0000
   Turn off err/grad.   DampErr         ....    0.1000
 Fernandez-Rico         CNVRico         .... off

SCF Procedure:
 Maximum # iterations   MaxIter         ....   125
 SCF integral mode      SCFMode         .... Direct
   Integral package                     .... SHARK and LIBINT hybrid scheme
 Reset frequency        DirectResetFreq ....    20
 Integral Threshold     Thresh          ....  1.000e-10 Eh
 Primitive CutOff       TCut            ....  1.000e-11 Eh

Convergence Tolerance:
 Convergence Check Mode ConvCheckMode   .... Total+1el-Energy
 Convergence forced     ConvForced      .... 1
 Energy Change          TolE            ....  1.000e-06 Eh
 1-El. energy change                    ....  1.000e-03 Eh
 Orbital Gradient       TolG            ....  5.000e-05
 Orbital Rotation angle TolX            ....  5.000e-05
 DIIS Error             TolErr          ....  1.000e-06


Diagonalization of the overlap matrix:
Smallest eigenvalue                        ... 6.205e-10
Time for diagonalization                   ...    0.034 sec
Threshold for overlap eigenvalues          ... 1.000e-08
Number of eigenvalues below threshold      ... 5
Smallest eigenvalue above threshold        ... 1.039e-08
Time for construction of square roots      ...    0.051 sec
Total time needed                          ...    0.087 sec

Time for model grid setup =    0.355 sec

------------------------------
INITIAL GUESS: MODEL POTENTIAL
------------------------------
Loading Hartree-Fock densities                     ... done
Calculating cut-offs                               ... done
Initializing the effective Hamiltonian             ... done
Setting up the integral package (SHARK)            ... done
Starting the Coulomb interaction                   ... done (   0.5 sec)
Reading the grid                                   ... done
Mapping shells                                     ... done
Starting the XC term evaluation                    ... done (   0.4 sec)
  promolecular density results
     # of electrons  =    155.992103908
     EX              =   -127.088524096
     EC              =     -5.312671162
     EX+EC           =   -132.401195258
Transforming the Hamiltonian                       ... done (   0.0 sec)
Diagonalizing the Hamiltonian                      ... done (   0.0 sec)
Back transforming the eigenvectors                 ... done (   0.0 sec)
Now organizing SCF variables                       ... done
                      ------------------
                      INITIAL GUESS DONE (   1.4 sec)
                      ------------------
-------------------
DFT GRID GENERATION
-------------------

General Integration Accuracy     IntAcc      ... 4.388
Radial Grid Type                 RadialGrid  ... OptM3 with GC (2021)
Angular Grid (max. ang.)         AngularGrid ... 4 (Lebedev-302)
Angular grid pruning method      GridPruning ... 4 (adaptive)
Weight generation scheme         WeightScheme... Becke
Basis function cutoff            BFCut       ... 1.0000e-10
Integration weight cutoff        WCut        ... 1.0000e-14
Angular grids for H and He will be reduced by one unit
Partially contracted basis set               ... off
Rotationally invariant grid construction     ... off

Total number of grid points                  ...   185979
Total number of batches                      ...     2921
Average number of points per batch           ...       63
Average number of grid points per atom       ...     5166
Time for grid setup =    1.360 sec

--------------------
COSX GRID GENERATION
--------------------

GRIDX 1
-------
General Integration Accuracy     IntAcc      ... 3.816
Radial Grid Type                 RadialGrid  ... OptM3 with GC (2021)
Angular Grid (max. ang.)         AngularGrid ... 1 (Lebedev-50)
Angular grid pruning method      GridPruning ... 4 (adaptive)
Weight generation scheme         WeightScheme... Becke
Basis function cutoff            BFCut       ... 1.0000e-10
Integration weight cutoff        WCut        ... 1.0000e-14
Angular grids for H and He will be reduced by one unit
Partially contracted basis set               ... on
Rotationally invariant grid construction     ... off

Total number of grid points                  ...    23620
Total number of batches                      ...      391
Average number of points per batch           ...       60
Average number of grid points per atom       ...      656
UseSFitting                                  ... on

GRIDX 2
-------
General Integration Accuracy     IntAcc      ... 4.020
Radial Grid Type                 RadialGrid  ... OptM3 with GC (2021)
Angular Grid (max. ang.)         AngularGrid ... 2 (Lebedev-110)
Angular grid pruning method      GridPruning ... 4 (adaptive)
Weight generation scheme         WeightScheme... Becke
Basis function cutoff            BFCut       ... 1.0000e-10
Integration weight cutoff        WCut        ... 1.0000e-14
Angular grids for H and He will be reduced by one unit
Partially contracted basis set               ... on
Rotationally invariant grid construction     ... off

Total number of grid points                  ...    56419
Total number of batches                      ...      902
Average number of points per batch           ...       62
Average number of grid points per atom       ...     1567
UseSFitting                                  ... on

GRIDX 3
-------
General Integration Accuracy     IntAcc      ... 4.338
Radial Grid Type                 RadialGrid  ... OptM3 with GC (2021)
Angular Grid (max. ang.)         AngularGrid ... 3 (Lebedev-194)
Angular grid pruning method      GridPruning ... 4 (adaptive)
Weight generation scheme         WeightScheme... Becke
Basis function cutoff            BFCut       ... 1.0000e-10
Integration weight cutoff        WCut        ... 1.0000e-14
Angular grids for H and He will be reduced by one unit
Partially contracted basis set               ... on
Rotationally invariant grid construction     ... off

Total number of grid points                  ...   121955
Total number of batches                      ...     1925
Average number of points per batch           ...       63
Average number of grid points per atom       ...     3388
UseSFitting                                  ... on

Time for X-Grid setup             =    2.248 sec

--------------
SCF ITERATIONS
--------------
ITER       Energy         Delta-E        Max-DP      RMS-DP      [F,P]     Damp
               ***  Starting incremental Fock matrix formation  ***
  0   -921.0201037051   0.000000000000113.14735894  0.71687745  0.1544875 0.7000
  1   -921.1940608530  -0.1739571479369485772.15678443 61996.77827482  0.0808025 0.7000
                               ***Turning on DIIS***
  2   -920.8561893744   0.33787147859318273198.79621619 135582.92396759  0.0348159 0.0000
  3   -918.1305215868   2.725667787684168166.23277425 1209.77701441  0.1354050 0.7000
  4   -918.1596831300  -0.029161543232342767.87568332 2148.34379748  0.1197637 0.7000
  5   -918.1979464509  -0.0382633208981415179.24112865 8283.50099184  0.1037397 0.7000
  6   -918.2580081099  -0.06006165900021262394.73041622 154803.86448689  0.0898800 0.0000
  7   -918.6445268418  -0.3865187319555678365.08269644 48494.41928269  0.0560023 0.0000
  8   -916.9700010232   1.674525818623317784.93583849 3139.19291451  0.0707584 0.0000
  9   -916.9981149189  -0.028113895635461224.18010470 6144.71613756  0.0666852 0.0000
 10   -917.0574487435  -0.059333824604710700.90171600 6436.16156734  0.0628538 0.0000
 11   -917.1034299900  -0.0459812465282432807.35450972 17372.05618941  0.0583154 0.0000
 12   -917.0612594920   0.0421704979861207076.32358391 9018.98977465  0.0470866 0.0000
 13   -917.0002788511   0.060980640880689925.91776594 5094.92843361  0.0546878 0.0000
 14   -917.0850524730  -0.084773621928472021.65731651 5203.60391984  0.0195193 0.0000
 15   -917.0821818401   0.0028706329801022849.29171140 8039.50551899  0.0087371 0.0000
 16   -917.0157934187   0.066388421346838805.73961390 6010.94800708  0.0073783 0.0000
 17   -916.9942744020   0.0215190166851504943.04644542 13196.22705601  0.0036312 0.0000
 18   -916.9468115378   0.047462864283545251.45593938 5637.07931888  0.0025702 0.0000
 19   -916.9369527461   0.009858791695824682.34332717 7059.08175823  0.0021348 0.0000
               *** Restarting incremental Fock matrix formation ***
                                   *** Resetting DIIS ***
 20   -917.3027666191  -0.36581387299727173286.41175527 188673.30686557  0.0047318 0.0000
 21   -919.8098751581  -2.507108539014522117.20811192 4214.63319288  0.0984482 0.0000

 WARNING: the maximum gradient error descreased on average only by a factor   0.9
          during the last 20 iterations

                      *** Initiating the TRAH-SCF procedure ***


TRAH GRIDX
----------

General Integration Accuracy     IntAcc      ... 3.067
Radial Grid Type                 RadialGrid  ... OptM3 with GC (2021)
Angular Grid (max. ang.)         AngularGrid ... 1 (Lebedev-50)
Angular grid pruning method      GridPruning ... 4 (adaptive)
Weight generation scheme         WeightScheme... Becke
Basis function cutoff            BFCut       ... 1.0000e-10
Integration weight cutoff        WCut        ... 1.0000e-14
Angular grids for H and He will be reduced by one unit
Partially contracted basis set               ... on
Rotationally invariant grid construction     ... off

Total number of grid points                  ...    12660
Total number of batches                      ...      216
Average number of points per batch           ...       58
Average number of grid points per atom       ...      352


TRAH GRID
---------

General Integration Accuracy     IntAcc      ... 3.467
Radial Grid Type                 RadialGrid  ... OptM3 with GC (2021)
Angular Grid (max. ang.)         AngularGrid ... 1 (Lebedev-50)
Angular grid pruning method      GridPruning ... 4 (adaptive)
Weight generation scheme         WeightScheme... Becke
Basis function cutoff            BFCut       ... 1.0000e-10
Integration weight cutoff        WCut        ... 1.0000e-14
Angular grids for H and He will be reduced by one unit
Partially contracted basis set               ... off
Rotationally invariant grid construction     ... off

Total number of grid points                  ...    28108
Total number of batches                      ...      455
Average number of points per batch           ...       61
Average number of grid points per atom       ...      781

 --------------------------------------------------------------------------------------------
   Iter.        energy            ||Error||_2        Shift      TRadius  Mac/Mic        Rej.
 --------------------------------------------------------------------------------------------
WARNING: 128 diagonal Hessian elements are negative!
    0       -919.830445296731     3.357191e+00                     0.400 (TRAH MAcro)   No
WARNING : negative HOMO - LUMO gap : -0.622519
    0     dE    -9.126781e-01     2.366902e+00    -3.0155e+00      0.400 (TRAH MIcro)
    0     dE    -1.003267e+00     1.066696e+00    -4.8779e+00      0.400 (TRAH MIcro)
    0     dE    -1.028601e+00     2.327187e-01    -5.1297e+00      0.400 (TRAH MIcro)
    0     dE    -1.031733e+00     9.711704e-02    -5.1132e+00      0.400 (TRAH MIcro)
    0     dE    -1.031882e+00     8.339136e-02    -5.1065e+00      0.400 (TRAH MIcro)
    0     dE    -1.032043e+00     9.338952e-02    -5.1152e+00      0.400 (TRAH MIcro)
    0     dE    -1.032270e+00     1.089028e-01    -5.0988e+00      0.400 (TRAH MIcro)
    0     dE    -1.032328e+00     1.049419e-01    -5.1076e+00      0.400 (TRAH MIcro)
    0     dE    -1.032356e+00     1.145314e-01    -5.1067e+00      0.400 (TRAH MIcro)
    0     dE    -1.032380e+00     1.093310e-01    -5.1084e+00      0.400 (TRAH MIcro)
    0     dE    -1.032384e+00     1.079469e-01    -5.1102e+00      0.400 (TRAH MIcro)
    0     dE    -1.032387e+00     1.085745e-01    -5.1089e+00      0.400 (TRAH MIcro)
    0     dE    -1.032444e+00     1.122074e-01    -5.1071e+00      0.400 (TRAH MIcro)
    0     dE    -1.032465e+00     1.127018e-01    -5.1076e+00      0.400 (TRAH MIcro)
WARNING: 46 diagonal Hessian elements are negative!
    1       -920.198973795565     1.580743e+00                     0.400 (TRAH MAcro)   No
WARNING : negative HOMO - LUMO gap : -0.334388
    1     dE    -2.113090e-01     1.316740e+00    -3.9749e-01      0.251 (TRAH MIcro)
    1     dE    -3.464862e-01     3.551692e-01    -1.3275e+00      0.400 (TRAH MIcro)
    1     dE    -3.552854e-01     1.287909e-01    -1.4059e+00      0.400 (TRAH MIcro)
    1     dE    -3.557677e-01     9.303917e-02    -1.4044e+00      0.400 (TRAH MIcro)
    1     dE    -3.563408e-01     1.286334e-01    -1.4170e+00      0.400 (TRAH MIcro)
    1     dE    -3.573638e-01     1.589279e-01    -1.4309e+00      0.400 (TRAH MIcro)
    1     dE    -3.574204e-01     1.586017e-01    -1.4358e+00      0.400 (TRAH MIcro)
    1     dE    -3.575901e-01     1.766725e-01    -1.4294e+00      0.400 (TRAH MIcro)
    1     dE    -3.292463e-01     1.477553e-01    -1.7339e+00      0.352 (TRAH MIcro)
    1     dE    -3.290959e-01     1.482460e-01    -1.7339e+00      0.351 (TRAH MIcro)
    1     dE    -3.291320e-01     1.458026e-01    -1.7341e+00      0.351 (TRAH MIcro)
    1     dE    -3.297419e-01     1.398521e-01    -1.7343e+00      0.352 (TRAH MIcro)
    1     dE    -3.299801e-01     1.395758e-01    -1.7344e+00      0.353 (TRAH MIcro)
    1     dE    -3.298810e-01     1.401213e-01    -1.7349e+00      0.352 (TRAH MIcro)
WARNING: 6 diagonal Hessian elements are negative!
    2       -920.438551235846     3.451190e-01                     0.400 (TRAH MAcro)   No
WARNING : negative HOMO - LUMO gap : -0.200810
    2     dE    -1.748110e-02     4.567494e-01    -3.4614e-02      0.100 (TRAH MIcro)
    2     dE    -5.758809e-02     1.914355e-01    -2.1106e-01      0.400 (TRAH MIcro)
    2     dE    -6.152141e-02     1.103152e-01    -2.6426e-01      0.400 (TRAH MIcro)
    2     dE    -5.673829e-02     2.153778e-01    -5.4631e-01      0.305 (TRAH MIcro)
    2     dE    -4.185936e-02     1.142688e-01    -1.0424e+00      0.197 (TRAH MIcro)
    2     dE    -4.385222e-02     3.713109e-02    -1.0620e+00      0.202 (TRAH MIcro)
    2     dE    -4.374506e-02     2.867510e-02    -1.0637e+00      0.202 (TRAH MIcro)
    2     dE    -4.376661e-02     3.250784e-02    -1.0640e+00      0.202 (TRAH MIcro)
    2     dE    -4.366796e-02     3.596142e-02    -1.0642e+00      0.201 (TRAH MIcro)
    2     dE    -4.365128e-02     3.600011e-02    -1.0642e+00      0.201 (TRAH MIcro)
    2     dE    -4.370625e-02     3.591282e-02    -1.0643e+00      0.201 (TRAH MIcro)
    2     dE    -4.382563e-02     3.577452e-02    -1.0643e+00      0.202 (TRAH MIcro)
    2     dE    -4.388634e-02     3.579279e-02    -1.0643e+00      0.202 (TRAH MIcro)
    2     dE    -4.391233e-02     3.571613e-02    -1.0643e+00      0.202 (TRAH MIcro)
WARNING: 6 diagonal Hessian elements are negative!
    3       -920.545382406147     2.122766e-01                     0.480 (TRAH MAcro)   No
WARNING : negative HOMO - LUMO gap : -0.182845
    3     dE    -8.920450e-03     1.166246e+00    -1.7716e-02      0.084 (TRAH MIcro)
    3     dE    -9.867432e-02     4.420577e-01    -4.8646e-01      0.480 (TRAH MIcro)
    3     dE    -1.537328e-01     3.504827e-01    -9.9430e-01      0.480 (TRAH MIcro)
    3     dE    -1.629022e-01     1.004160e-01    -1.0855e+00      0.480 (TRAH MIcro)
    3     dE    -1.633289e-01     4.763925e-02    -1.0879e+00      0.480 (TRAH MIcro)
    3     dE    -1.633390e-01     4.530061e-02    -1.0878e+00      0.480 (TRAH MIcro)
    3     dE    -1.633641e-01     4.903599e-02    -1.0882e+00      0.480 (TRAH MIcro)
    3     dE    -1.633802e-01     5.229004e-02    -1.0882e+00      0.480 (TRAH MIcro)
    3     dE    -1.633813e-01     5.252826e-02    -1.0882e+00      0.480 (TRAH MIcro)
    3     dE    -1.634301e-01     6.025678e-02    -1.0886e+00      0.480 (TRAH MIcro)
    3     dE    -1.634398e-01     5.976286e-02    -1.0887e+00      0.480 (TRAH MIcro)
    3     dE    -1.634395e-01     5.969942e-02    -1.0887e+00      0.480 (TRAH MIcro)
    3     dE    -1.634465e-01     6.146780e-02    -1.0887e+00      0.480 (TRAH MIcro)
    3     dE    -1.634533e-01     6.284513e-02    -1.0887e+00      0.480 (TRAH MIcro)
WARNING: 2 diagonal Hessian elements are negative!
    4       -920.880413106756     3.586800e-01                     0.576 (TRAH MAcro)   No
WARNING : negative HOMO - LUMO gap : -0.029764
    4     dE    -2.871368e-02     1.792620e+00    -5.6049e-02      0.157 (TRAH MIcro)
    4     dE    -1.710239e-01     9.831755e-01    -4.7939e-01      0.576 (TRAH MIcro)
    4     dE    -1.863237e-01     1.938217e-01    -5.5453e-01      0.576 (TRAH MIcro)
    4     dE    -1.877326e-01     5.065426e-02    -5.6608e-01      0.574 (TRAH MIcro)
    4     dE    -1.883863e-01     5.738487e-02    -5.6654e-01      0.576 (TRAH MIcro)
    4     dE    -1.887003e-01     7.940948e-02    -5.6744e-01      0.576 (TRAH MIcro)
    4     dE    -1.889060e-01     9.494003e-02    -5.6861e-01      0.576 (TRAH MIcro)
    4     dE    -1.891430e-01     1.133398e-01    -5.7012e-01      0.576 (TRAH MIcro)
    4     dE    -1.891432e-01     1.126254e-01    -5.7015e-01      0.576 (TRAH MIcro)
    4     dE    -1.891887e-01     1.237741e-01    -5.7016e-01      0.576 (TRAH MIcro)
    4     dE    -1.893253e-01     1.357006e-01    -5.7096e-01      0.576 (TRAH MIcro)
    4     dE    -1.893366e-01     1.397028e-01    -5.7088e-01      0.576 (TRAH MIcro)
    4     dE    -1.894229e-01     1.582466e-01    -5.7120e-01      0.576 (TRAH MIcro)
    4     dE    -1.894293e-01     1.567830e-01    -5.7131e-01      0.576 (TRAH MIcro)
    5       -921.309984846744     2.582679e-01                     0.691 (TRAH MAcro)   No
    5     dE    -1.272348e-03     5.038407e-01    -2.5444e-03      0.010 (TRAH MIcro)
    5     dE    -4.460202e-02     1.810953e-01    -7.7798e-02      0.383 (TRAH MIcro)
    5     dE    -4.820715e-02     5.185356e-02    -8.2649e-02      0.408 (TRAH MIcro)
    5     dE    -4.861863e-02     3.409506e-02    -8.3256e-02      0.410 (TRAH MIcro)
    5     dE    -4.871667e-02     2.700055e-02    -8.3384e-02      0.410 (TRAH MIcro)
    5     dE    -4.872446e-02     2.193771e-02    -8.3405e-02      0.410 (TRAH MIcro)
    5     dE    -4.872505e-02     2.241127e-02    -8.3405e-02      0.410 (TRAH MIcro)
    5     dE    -4.877963e-02     3.129359e-02    -8.3465e-02      0.411 (TRAH MIcro)
    5     dE    -4.879557e-02     3.270072e-02    -8.3484e-02      0.411 (TRAH MIcro)
    5     dE    -4.898401e-02     5.116686e-02    -8.3745e-02      0.412 (TRAH MIcro)
    5     dE    -4.898507e-02     4.972265e-02    -8.3751e-02      0.412 (TRAH MIcro)
    5     dE    -4.900502e-02     4.796834e-02    -8.3779e-02      0.412 (TRAH MIcro)
    5     dE    -4.903125e-02     4.756990e-02    -8.3826e-02      0.412 (TRAH MIcro)
    5     dE    -4.907281e-02     5.473260e-02    -8.3883e-02      0.412 (TRAH MIcro)
    6       -921.425494552665     1.404133e-01                     0.829 (TRAH MAcro)   No
    6     dE    -1.124784e-03     2.635572e-01    -2.2490e-03      0.016 (TRAH MIcro)
    6     dE    -1.969605e-03     4.455461e-02    -3.9338e-03      0.037 (TRAH MIcro)
    6     dE    -2.117268e-03     1.870877e-02    -4.2277e-03      0.040 (TRAH MIcro)
    6     dE    -2.137384e-03     8.686106e-03    -4.2673e-03      0.042 (TRAH MIcro)
    7       -921.427771591277     8.776140e-03                     0.995 (TRAH MAcro)   No
    7     dE    -6.039607e-07     8.783967e-03    -1.2080e-06      0.000 (TRAH MIcro)
    7     dE    -4.447190e-06     2.912671e-03    -8.8944e-06      0.002 (TRAH MIcro)
    7     dE    -6.066858e-06     1.775457e-03    -1.2134e-05      0.003 (TRAH MIcro)
    7     dE    -6.305013e-06     4.498719e-04    -1.2610e-05      0.003 (TRAH MIcro)
    8       -921.427778201116     4.861118e-04                           (NR   MAcro)
    8     dE    -2.736518e-08     2.704109e-04                           (NR   MIcro)
    8     dE    -3.806666e-08     1.271860e-04                           (NR   MIcro)
    8     dE    -3.980640e-08     6.451293e-05                           (NR   MIcro)
    8     dE    -4.016056e-08     2.641510e-05                           (NR   MIcro)
    8     dE    -4.021817e-08     1.055289e-05                           (NR   MIcro)
    8     dE    -4.022760e-08     3.863272e-06                           (NR   MIcro)
    9       -921.427778163127     3.447302e-05                           (NR   MAcro)

               *****************************************************
               *                     SUCCESS                       *
               *           SCF CONVERGED AFTER 130 CYCLES          *
               *****************************************************

Old exchange energy                            =    -25.780030230 Eh
New exchange energy                            =    -25.780083950 Eh
Exchange energy change after final integration =     -0.000053720 Eh
Total energy after final integration           =   -921.427831883 Eh
Final COS-X integration done in                =    27.952 sec

----------------
TOTAL SCF ENERGY
----------------

Total Energy       :         -921.42783188 Eh          -25073.32601 eV

Components:
Nuclear Repulsion  :         1820.70396093 Eh           49543.87354 eV
Electronic Energy  :        -2742.13179281 Eh          -74617.19955 eV
One Electron Energy:        -4862.14468290 Eh         -132305.68311 eV
Two Electron Energy:         2120.01289009 Eh           57688.48357 eV
Max COSX asymmetry :            0.00040181 Eh               0.01093 eV

Virial components:
Potential Energy   :        -1839.46931721 Eh          -50054.50484 eV
Kinetic Energy     :          918.04148532 Eh           24981.17883 eV
Virial Ratio       :            2.00368866


DFT components:
N(Alpha)           :       78.000113550735 electrons
N(Beta)            :       78.000113550735 electrons
N(Total)           :      156.000227101471 electrons
E(X)               :     -102.434238486998 Eh       
E(C)               :       -6.255496716105 Eh       
E(XC)              :     -108.689735203103 Eh       
DFET-embed. en.    :        0.000000000000 Eh       

---------------
SCF CONVERGENCE
---------------

  Last Energy change         ...    3.7990e-08  Tolerance :   1.0000e-06
  Last Orbital Gradient      ...    3.4473e-05  Tolerance :   5.0000e-05
  Last Orbital Rotation      ...    3.0764e-04

             **** THE GBW FILE WAS UPDATED (Stone-Wales_defect_no_loss.gbw) ****
             **** DENSITY Stone-Wales_defect_no_loss.scfp WAS UPDATED ****
             **** ENERGY FILE WAS UPDATED (Stone-Wales_defect_no_loss.en.tmp) ****
             **** THE GBW FILE WAS UPDATED (Stone-Wales_defect_no_loss.gbw) ****
             **** DENSITY Stone-Wales_defect_no_loss.scfp WAS UPDATED ****
----------------
ORBITAL ENERGIES
----------------

  NO   OCC          E(Eh)            E(eV) 
   0   2.0000     -10.211330      -277.8644 
   1   2.0000     -10.201008      -277.5835 
   2   2.0000     -10.200978      -277.5827 
   3   2.0000     -10.200172      -277.5608 
   4   2.0000     -10.190614      -277.3007 
   5   2.0000     -10.190602      -277.3004 
   6   2.0000     -10.189918      -277.2818 
   7   2.0000     -10.189914      -277.2817 
   8   2.0000     -10.189011      -277.2571 
   9   2.0000     -10.189000      -277.2568 
  10   2.0000     -10.187151      -277.2065 
  11   2.0000     -10.186585      -277.1911 
  12   2.0000     -10.186107      -277.1781 
  13   2.0000     -10.186106      -277.1780 
  14   2.0000     -10.183951      -277.1194 
  15   2.0000     -10.183938      -277.1191 
  16   2.0000     -10.182398      -277.0771 
  17   2.0000     -10.182367      -277.0763 
  18   2.0000     -10.178889      -276.9816 
  19   2.0000     -10.178864      -276.9810 
  20   2.0000     -10.171927      -276.7922 
  21   2.0000     -10.171414      -276.7782 
  22   2.0000     -10.171151      -276.7711 
  23   2.0000     -10.170638      -276.7571 
  24   2.0000      -0.921764       -25.0825 
  25   2.0000      -0.885310       -24.0905 
  26   2.0000      -0.866416       -23.5764 
  27   2.0000      -0.841018       -22.8853 
  28   2.0000      -0.822761       -22.3885 
  29   2.0000      -0.814928       -22.1753 
  30   2.0000      -0.780374       -21.2351 
  31   2.0000      -0.767375       -20.8813 
  32   2.0000      -0.756943       -20.5975 
  33   2.0000      -0.730212       -19.8701 
  34   2.0000      -0.724753       -19.7215 
  35   2.0000      -0.706570       -19.2268 
  36   2.0000      -0.671735       -18.2788 
  37   2.0000      -0.643190       -17.5021 
  38   2.0000      -0.637220       -17.3396 
  39   2.0000      -0.628382       -17.0991 
  40   2.0000      -0.599520       -16.3138 
  41   2.0000      -0.587793       -15.9946 
  42   2.0000      -0.572961       -15.5911 
  43   2.0000      -0.546960       -14.8835 
  44   2.0000      -0.539977       -14.6935 
  45   2.0000      -0.527445       -14.3525 
  46   2.0000      -0.518042       -14.0966 
  47   2.0000      -0.503535       -13.7019 
  48   2.0000      -0.471100       -12.8193 
  49   2.0000      -0.470646       -12.8069 
  50   2.0000      -0.465386       -12.6638 
  51   2.0000      -0.459813       -12.5122 
  52   2.0000      -0.447549       -12.1784 
  53   2.0000      -0.436443       -11.8762 
  54   2.0000      -0.436336       -11.8733 
  55   2.0000      -0.426948       -11.6179 
  56   2.0000      -0.420971       -11.4552 
  57   2.0000      -0.413124       -11.2417 
  58   2.0000      -0.408593       -11.1184 
  59   2.0000      -0.395115       -10.7516 
  60   2.0000      -0.386541       -10.5183 
  61   2.0000      -0.383203       -10.4275 
  62   2.0000      -0.381594       -10.3837 
  63   2.0000      -0.373350       -10.1594 
  64   2.0000      -0.366809        -9.9814 
  65   2.0000      -0.364509        -9.9188 
  66   2.0000      -0.359167        -9.7734 
  67   2.0000      -0.345506        -9.4017 
  68   2.0000      -0.339686        -9.2433 
  69   2.0000      -0.328775        -8.9464 
  70   2.0000      -0.327959        -8.9242 
  71   2.0000      -0.322579        -8.7778 
  72   2.0000      -0.275652        -7.5009 
  73   2.0000      -0.275383        -7.4936 
  74   2.0000      -0.260468        -7.0877 
  75   2.0000      -0.234388        -6.3780 
  76   2.0000      -0.218331        -5.9411 
  77   2.0000      -0.189061        -5.1446 
  78   0.0000      -0.096085        -2.6146 
  79   0.0000      -0.063555        -1.7294 
  80   0.0000      -0.062720        -1.7067 
  81   0.0000      -0.019123        -0.5204 
  82   0.0000      -0.001999        -0.0544 
  83   0.0000      -0.000000        -0.0000 
  84   0.0000      -0.000000        -0.0000 
  85   0.0000      -0.000000        -0.0000 
  86   0.0000       0.000000         0.0000 
  87   0.0000       0.000000         0.0000 
  88   0.0000       0.003721         0.1013 
  89   0.0000       0.005122         0.1394 
  90   0.0000       0.007377         0.2007 
  91   0.0000       0.009695         0.2638 
  92   0.0000       0.015994         0.4352 
  93   0.0000       0.019419         0.5284 
  94   0.0000       0.029170         0.7938 
  95   0.0000       0.032011         0.8711 
  96   0.0000       0.035805         0.9743 
  97   0.0000       0.038100         1.0368 
  98   0.0000       0.039856         1.0845 
  99   0.0000       0.046359         1.2615 
 100   0.0000       0.052133         1.4186 
 101   0.0000       0.055458         1.5091 
 102   0.0000       0.056618         1.5407 
 103   0.0000       0.060241         1.6392 
 104   0.0000       0.066506         1.8097 
 105   0.0000       0.066582         1.8118 
 106   0.0000       0.071752         1.9525 
 107   0.0000       0.077897         2.1197 
 108   0.0000       0.083312         2.2670 
 109   0.0000       0.086737         2.3602 
 110   0.0000       0.088700         2.4137 
 111   0.0000       0.095896         2.6095 
 112   0.0000       0.096779         2.6335 
 113   0.0000       0.100853         2.7443 
 114   0.0000       0.101543         2.7631 
 115   0.0000       0.104940         2.8556 
 116   0.0000       0.109944         2.9917 
 117   0.0000       0.114280         3.1097 
 118   0.0000       0.114317         3.1107 
 119   0.0000       0.130001         3.5375 
 120   0.0000       0.132012         3.5922 
 121   0.0000       0.134148         3.6504 
 122   0.0000       0.134674         3.6647 
 123   0.0000       0.137125         3.7313 
 124   0.0000       0.139698         3.8014 
 125   0.0000       0.142360         3.8738 
 126   0.0000       0.142454         3.8764 
 127   0.0000       0.142493         3.8774 
 128   0.0000       0.148647         4.0449 
 129   0.0000       0.154705         4.2097 
 130   0.0000       0.162853         4.4314 
 131   0.0000       0.164193         4.4679 
 132   0.0000       0.164496         4.4762 
 133   0.0000       0.167784         4.5656 
 134   0.0000       0.168247         4.5782 
 135   0.0000       0.170700         4.6450 
 136   0.0000       0.177587         4.8324 
 137   0.0000       0.178540         4.8583 
 138   0.0000       0.180419         4.9095 
 139   0.0000       0.181315         4.9338 
 140   0.0000       0.182082         4.9547 
 141   0.0000       0.184164         5.0113 
 142   0.0000       0.186114         5.0644 
 143   0.0000       0.190831         5.1928 
 144   0.0000       0.191739         5.2175 
 145   0.0000       0.193840         5.2747 
 146   0.0000       0.197980         5.3873 
 147   0.0000       0.200353         5.4519 
 148   0.0000       0.203603         5.5403 
 149   0.0000       0.208141         5.6638 
 150   0.0000       0.209654         5.7050 
 151   0.0000       0.210509         5.7282 
 152   0.0000       0.210968         5.7407 
 153   0.0000       0.218852         5.9553 
 154   0.0000       0.223859         6.0915 
 155   0.0000       0.225425         6.1341 
 156   0.0000       0.227748         6.1973 
 157   0.0000       0.229182         6.2364 
 158   0.0000       0.233564         6.3556 
 159   0.0000       0.236017         6.4224 
 160   0.0000       0.238225         6.4824 
 161   0.0000       0.241629         6.5751 
 162   0.0000       0.241936         6.5834 
 163   0.0000       0.246901         6.7185 
 164   0.0000       0.251776         6.8512 
 165   0.0000       0.253012         6.8848 
 166   0.0000       0.253643         6.9020 
 167   0.0000       0.256879         6.9900 
 168   0.0000       0.263482         7.1697 
 169   0.0000       0.266817         7.2605 
 170   0.0000       0.270968         7.3734 
 171   0.0000       0.271225         7.3804 
 172   0.0000       0.274958         7.4820 
 173   0.0000       0.278245         7.5714 
 174   0.0000       0.280823         7.6416 
 175   0.0000       0.280942         7.6448 
 176   0.0000       0.281981         7.6731 
 177   0.0000       0.287741         7.8298 
 178   0.0000       0.289463         7.8767 
 179   0.0000       0.292114         7.9488 
 180   0.0000       0.296151         8.0587 
 181   0.0000       0.297052         8.0832 
 182   0.0000       0.301066         8.1924 
 183   0.0000       0.302171         8.2225 
 184   0.0000       0.311698         8.4817 
 185   0.0000       0.314996         8.5715 
 186   0.0000       0.318502         8.6669 
 187   0.0000       0.323499         8.8029 
 188   0.0000       0.330234         8.9861 
 189   0.0000       0.335840         9.1387 
 190   0.0000       0.340541         9.2666 
 191   0.0000       0.349714         9.5162 
 192   0.0000       0.355032         9.6609 
 193   0.0000       0.356034         9.6882 
 194   0.0000       0.365097         9.9348 
 195   0.0000       0.377265        10.2659 
 196   0.0000       0.378357        10.2956 
 197   0.0000       0.385058        10.4779 
 198   0.0000       0.387841        10.5537 
 199   0.0000       0.390510        10.6263 
 200   0.0000       0.397454        10.8153 
 201   0.0000       0.406898        11.0723 
 202   0.0000       0.409947        11.1552 
 203   0.0000       0.415344        11.3021 
 204   0.0000       0.419798        11.4233 
 205   0.0000       0.421053        11.4574 
 206   0.0000       0.436741        11.8843 
 207   0.0000       0.439367        11.9558 
 208   0.0000       0.444920        12.1069 
 209   0.0000       0.451706        12.2915 
 210   0.0000       0.460968        12.5436 
 211   0.0000       0.465731        12.6732 
 212   0.0000       0.470481        12.8024 
 213   0.0000       0.481544        13.1035 
 214   0.0000       0.488986        13.3060 
 215   0.0000       0.493001        13.4152 
 216   0.0000       0.496314        13.5054 
 217   0.0000       0.500534        13.6202 
 218   0.0000       0.506630        13.7861 
 219   0.0000       0.516331        14.0501 
 220   0.0000       0.517759        14.0890 
 221   0.0000       0.520571        14.1655 
 222   0.0000       0.524628        14.2759 
 223   0.0000       0.529871        14.4185 
 224   0.0000       0.537685        14.6312 
 225   0.0000       0.539115        14.6701 
 226   0.0000       0.545755        14.8508 
 227   0.0000       0.559208        15.2168 
 228   0.0000       0.560580        15.2542 
 229   0.0000       0.562752        15.3133 
 230   0.0000       0.563095        15.3226 
 231   0.0000       0.566233        15.4080 
 232   0.0000       0.570702        15.5296 
 233   0.0000       0.577651        15.7187 
 234   0.0000       0.578163        15.7326 
 235   0.0000       0.578858        15.7515 
 236   0.0000       0.586779        15.9671 
 237   0.0000       0.587138        15.9768 
 238   0.0000       0.593679        16.1548 
 239   0.0000       0.597844        16.2681 
 240   0.0000       0.600949        16.3527 
 241   0.0000       0.604682        16.4542 
 242   0.0000       0.606645        16.5077 
 243   0.0000       0.609042        16.5729 
 244   0.0000       0.612491        16.6667 
 245   0.0000       0.617987        16.8163 
 246   0.0000       0.620384        16.8815 
 247   0.0000       0.629955        17.1419 
 248   0.0000       0.630996        17.1703 
 249   0.0000       0.633103        17.2276 
 250   0.0000       0.643788        17.5183 
 251   0.0000       0.656468        17.8634 
 252   0.0000       0.658739        17.9252 
 253   0.0000       0.660855        17.9828 
 254   0.0000       0.664819        18.0906 
 255   0.0000       0.670049        18.2330 
 256   0.0000       0.675514        18.3817 
 257   0.0000       0.676207        18.4005 
 258   0.0000       0.679364        18.4864 
 259   0.0000       0.680767        18.5246 
 260   0.0000       0.695386        18.9224 
 261   0.0000       0.708016        19.2661 
 262   0.0000       0.708551        19.2806 
 263   0.0000       0.708560        19.2809 
 264   0.0000       0.711989        19.3742 
 265   0.0000       0.720200        19.5976 
 266   0.0000       0.723796        19.6955 
 267   0.0000       0.727276        19.7902 
 268   0.0000       0.733025        19.9466 
 269   0.0000       0.735363        20.0102 
 270   0.0000       0.741237        20.1701 
 271   0.0000       0.749160        20.3857 
 272   0.0000       0.751516        20.4498 
 273   0.0000       0.759978        20.6801 
 274   0.0000       0.769537        20.9402 
 275   0.0000       0.771865        21.0035 
 276   0.0000       0.775251        21.0957 
 277   0.0000       0.781229        21.2583 
 278   0.0000       0.784811        21.3558 
 279   0.0000       0.786793        21.4097 
 280   0.0000       0.801739        21.8164 
 281   0.0000       0.837822        22.7983 
 282   0.0000       0.845549        23.0086 
 283   0.0000       0.867708        23.6115 
 284   0.0000       0.873786        23.7769 
 285   0.0000       0.877573        23.8800 
 286   0.0000       0.894628        24.3441 
 287   0.0000       0.900300        24.4984 
 288   0.0000       0.903973        24.5984 
 289   0.0000       0.910561        24.7776 
 290   0.0000       0.913418        24.8554 
 291   0.0000       0.917379        24.9632 
 292   0.0000       0.935771        25.4636 
 293   0.0000       0.938523        25.5385 
 294   0.0000       0.940488        25.5920 
 295   0.0000       0.944893        25.7119 
 296   0.0000       0.952582        25.9211 
 297   0.0000       0.955454        25.9992 
 298   0.0000       0.958847        26.0916 
 299   0.0000       0.960001        26.1230 
 300   0.0000       0.962365        26.1873 
 301   0.0000       0.971384        26.4327 
 302   0.0000       0.973892        26.5010 
 303   0.0000       0.980348        26.6766 
 304   0.0000       0.983412        26.7600 
 305   0.0000       0.985186        26.8083 
 306   0.0000       0.990100        26.9420 
 307   0.0000       0.995754        27.0958 
 308   0.0000       0.999068        27.1860 
 309   0.0000       1.001800        27.2604 
 310   0.0000       1.012699        27.5569 
 311   0.0000       1.017531        27.6884 
 312   0.0000       1.019278        27.7360 
 313   0.0000       1.023713        27.8566 
 314   0.0000       1.029174        28.0053 
 315   0.0000       1.043396        28.3922 
 316   0.0000       1.047643        28.5078 
 317   0.0000       1.051989        28.6261 
 318   0.0000       1.056234        28.7416 
 319   0.0000       1.058173        28.7943 
 320   0.0000       1.064095        28.9555 
 321   0.0000       1.066826        29.0298 
 322   0.0000       1.073101        29.2006 
 323   0.0000       1.092648        29.7325 
 324   0.0000       1.093283        29.7498 
 325   0.0000       1.105522        30.0828 
 326   0.0000       1.106103        30.0986 
 327   0.0000       1.110116        30.2078 
 328   0.0000       1.113824        30.3087 
 329   0.0000       1.120812        30.4989 
 330   0.0000       1.128235        30.7008 
 331   0.0000       1.146520        31.1984 
 332   0.0000       1.149650        31.2836 
 333   0.0000       1.156199        31.4618 
 334   0.0000       1.161623        31.6094 
 335   0.0000       1.163274        31.6543 
 336   0.0000       1.177025        32.0285 
 337   0.0000       1.179355        32.0919 
 338   0.0000       1.218132        33.1470 
 339   0.0000       1.229674        33.4611 
 340   0.0000       1.233387        33.5622 
 341   0.0000       1.248788        33.9813 
 342   0.0000       1.269591        34.5473 
 343   0.0000       1.290445        35.1148 
 344   0.0000       1.309605        35.6362 
 345   0.0000       1.320721        35.9386 
 346   0.0000       1.322342        35.9828 
 347   0.0000       1.344426        36.5837 
 348   0.0000       1.365221        37.1495 
 349   0.0000       1.382728        37.6259 
 350   0.0000       1.407882        38.3104 
 351   0.0000       1.409903        38.3654 
 352   0.0000       1.433668        39.0121 
 353   0.0000       1.458938        39.6997 
 354   0.0000       1.463600        39.8266 
 355   0.0000       1.464929        39.8627 
 356   0.0000       1.472911        40.0799 
 357   0.0000       1.474684        40.1282 
 358   0.0000       1.477614        40.2079 
 359   0.0000       1.488775        40.5116 
 360   0.0000       1.492712        40.6188 
 361   0.0000       1.500066        40.8189 
 362   0.0000       1.502195        40.8768 
 363   0.0000       1.523398        41.4538 
 364   0.0000       1.524974        41.4966 
 365   0.0000       1.528251        41.5858 
 366   0.0000       1.547211        42.1018 
 367   0.0000       1.558107        42.3983 
 368   0.0000       1.564446        42.5707 
 369   0.0000       1.564613        42.5753 
 370   0.0000       1.571006        42.7492 
 371   0.0000       1.581383        43.0316 
 372   0.0000       1.589287        43.2467 
 373   0.0000       1.589332        43.2479 
 374   0.0000       1.601970        43.5918 
 375   0.0000       1.602816        43.6148 
 376   0.0000       1.611138        43.8413 
 377   0.0000       1.611279        43.8451 
 378   0.0000       1.628003        44.3002 
 379   0.0000       1.647919        44.8422 
 380   0.0000       1.658520        45.1306 
 381   0.0000       1.670996        45.4701 
 382   0.0000       1.678961        45.6869 
 383   0.0000       1.693420        46.0803 
 384   0.0000       1.704936        46.3937 
 385   0.0000       1.716184        46.6997 
 386   0.0000       1.719569        46.7918 
 387   0.0000       1.722755        46.8785 
 388   0.0000       1.726458        46.9793 
 389   0.0000       1.732383        47.1405 
 390   0.0000       1.736562        47.2543 
 391   0.0000       1.740796        47.3695 
 392   0.0000       1.751956        47.6731 
 393   0.0000       1.763570        47.9892 
 394   0.0000       1.770460        48.1767 
 395   0.0000       1.784760        48.5658 
 396   0.0000       1.790544        48.7232 
 397   0.0000       1.801921        49.0328 
 398   0.0000       1.823010        49.6066 
 399   0.0000       1.834785        49.9270 
 400   0.0000       1.840528        50.0833 
 401   0.0000       1.842332        50.1324 
 402   0.0000       1.856648        50.5219 
 403   0.0000       1.856899        50.5288 
 404   0.0000       1.866888        50.8006 
 405   0.0000       1.875427        51.0330 
 406   0.0000       1.881302        51.1928 
 407   0.0000       1.885643        51.3110 
 408   0.0000       1.887231        51.3542 
 409   0.0000       1.896185        51.5978 
 410   0.0000       1.900927        51.7268 
 411   0.0000       1.905519        51.8518 
 412   0.0000       1.909836        51.9693 
 413   0.0000       1.922279        52.3079 
 414   0.0000       1.924893        52.3790 
 415   0.0000       1.927420        52.4478 
 416   0.0000       1.937099        52.7111 
 417   0.0000       1.968785        53.5734 
 418   0.0000       1.977885        53.8210 
 419   0.0000       1.998889        54.3925 
 420   0.0000       2.004941        54.5572 
 421   0.0000       2.006662        54.6041 
 422   0.0000       2.007832        54.6359 
 423   0.0000       2.026378        55.1406 
 424   0.0000       2.029371        55.2220 
 425   0.0000       2.029973        55.2384 
 426   0.0000       2.041837        55.5612 
 427   0.0000       2.054970        55.9186 
 428   0.0000       2.063293        56.1450 
 429   0.0000       2.075655        56.4814 
 430   0.0000       2.081955        56.6529 
 431   0.0000       2.092886        56.9503 
 432   0.0000       2.094391        56.9913 
 433   0.0000       2.117335        57.6156 
 434   0.0000       2.126278        57.8590 
 435   0.0000       2.127482        57.8917 
 436   0.0000       2.128031        57.9067 
 437   0.0000       2.139820        58.2275 
 438   0.0000       2.143364        58.3239 
 439   0.0000       2.152899        58.5834 
 440   0.0000       2.156212        58.6735 
 441   0.0000       2.184717        59.4492 
 442   0.0000       2.198567        59.8261 
 443   0.0000       2.216864        60.3239 
 444   0.0000       2.224215        60.5240 
 445   0.0000       2.228028        60.6277 
 446   0.0000       2.237959        60.8980 
 447   0.0000       2.250204        61.2312 
 448   0.0000       2.268511        61.7293 
 449   0.0000       2.295193        62.4554 
 450   0.0000       2.300068        62.5880 
 451   0.0000       2.300694        62.6051 
 452   0.0000       2.315723        63.0140 
 453   0.0000       2.325255        63.2734 
 454   0.0000       2.349295        63.9276 
 455   0.0000       2.385053        64.9006 
 456   0.0000       2.393584        65.1327 
 457   0.0000       2.401607        65.3511 
 458   0.0000       2.446979        66.5857 
 459   0.0000       2.460358        66.9498 
 460   0.0000       2.473095        67.2963 
 461   0.0000       2.483606        67.5823 
 462   0.0000       2.493518        67.8521 
 463   0.0000       2.502446        68.0950 
 464   0.0000       2.513516        68.3963 
 465   0.0000       2.530955        68.8708 
 466   0.0000       2.535543        68.9956 
 467   0.0000       2.579943        70.2038 
 468   0.0000       2.586745        70.3889 
 469   0.0000       2.608559        70.9825 
 470   0.0000       2.609042        70.9957 
 471   0.0000       2.616228        71.1912 
 472   0.0000       2.631385        71.6036 
 473   0.0000       2.650371        72.1202 
 474   0.0000       2.654377        72.2293 
 475   0.0000       2.655423        72.2577 
 476   0.0000       2.698363        73.4262 
 477   0.0000       2.700843        73.4937 
 478   0.0000       2.714123        73.8550 
 479   0.0000       2.714728        73.8715 
[...]
 761   88451.4    113.1     -0.01329  -0.00430  -0.02844  -0.00111
 762   88477.0    113.0      0.10734   0.00121  -0.00027   0.05024
 763   88484.2    113.0     -0.12579   0.26168  -0.00993  -0.00029
 764   88569.2    112.9     -0.00461   0.00013   0.00016  -0.19258
 765   88587.9    112.9      0.00293  -0.01627   0.05633   0.00005
 766   88599.9    112.9     -0.01144  -0.07731   0.01165   0.00023
 767   88659.0    112.8      0.02380  -0.00081   0.00072   0.24903
 768   88688.4    112.8     -0.02213   0.07024  -0.20303   0.00005
 769   88706.1    112.7     -0.25556   0.00466  -0.00177   0.06656
 770   88707.4    112.7      0.25213   0.20597  -0.07740  -0.00122
 771   88733.6    112.7      0.01812  -0.00065   0.00029  -0.04803
 772   88734.9    112.7     -0.01974   0.14613  -0.21701   0.00031
 773   88804.9    112.6      0.00416   0.00072   0.00039  -0.14658
 774   88828.4    112.6      0.02395  -0.25419  -0.21270  -0.00017
 775   88872.5    112.5     -0.00941  -0.00024  -0.00003  -0.18841
 776   88911.2    112.5     -0.04069  -0.01963   0.16299  -0.00021
 777   88949.9    112.4      0.04710   0.00000   0.00046  -0.10570
 778   88987.6    112.4      0.02824   0.00029  -0.00066   0.17602
 779   88999.4    112.4     -0.04415   0.00457   0.08155   0.00122
 780   89038.4    112.3     -0.00211  -0.00013  -0.00009   0.03395
 781   89116.6    112.2     -0.00804  -0.07656   0.04507  -0.00002
 782   89139.4    112.2     -0.00672   0.00010  -0.00018   0.01783
 783   89153.2    112.2     -0.02413   0.00029  -0.00036   0.02270
 784   89195.1    112.1     -0.04148  -0.09487   0.21978  -0.00013
 785   89206.8    112.1      0.04975   0.00093  -0.00136  -0.03218
 786   89238.6    112.1      0.02238  -0.00047   0.00006   0.10197
 787   89298.0    112.0      0.00253  -0.15983  -0.05877   0.00003
 788   89304.4    112.0     -0.00472   0.00109   0.00058   0.02815
 789   89339.9    111.9      0.00282   0.20634   0.21916   0.00026
 790   89380.0    111.9     -0.01572   0.32973   0.09369   0.00014
 791   89456.1    111.8      0.01205  -0.00069  -0.00025  -0.00525
 792   89512.5    111.7     -0.00423   0.08818   0.08114   0.00008
 793   89545.7    111.7     -0.02591   0.00981  -0.00258  -0.00059
 794   89550.2    111.7      0.02789  -0.00022   0.00061  -0.05816
 795   89582.3    111.6     -0.00269   0.00053  -0.00067   0.02772
 796   89614.1    111.6      0.01780   0.00871  -0.07012   0.00015
 797   89619.8    111.6      0.12239  -0.00255   0.00417  -0.01608
 798   89622.5    111.6     -0.12691  -0.22454   0.39055   0.00072
 799   89722.3    111.5     -0.10917  -0.00053   0.00110   0.00758
 800   89736.3    111.4      0.09666  -0.09587   0.16854  -0.00000
 801   89746.9    111.4     -0.01273   0.02957   0.07317  -0.00002
 802   89791.6    111.4     -0.01584  -0.00025   0.00033   0.02342
 803   89803.3    111.4      0.02339   0.10623  -0.06832   0.00043
 804   89835.4    111.3      0.00818  -0.00001   0.00013  -0.08549
 805   89865.9    111.3      0.09783  -0.12126  -0.03925  -0.00067
 806   89886.4    111.3     -0.11588  -0.00071  -0.00027   0.24445
 807   89942.6    111.2     -0.10985   0.00082   0.00009   0.13350
 808   89968.9    111.1      0.41050   0.21217   0.12090   0.00057
 809   89979.6    111.1     -0.31507  -0.00264  -0.00164   0.06120
 810   90009.2    111.1     -0.24671   0.00382   0.00230  -0.01202
 811   90010.6    111.1      0.21449  -0.11942  -0.07355  -0.00072
 812   90084.2    111.0      0.95769   0.03860  -0.04946  -0.00506
 813   90084.4    111.0     -0.93960  -0.00797   0.01045  -0.02341
 814   90110.2    111.0     -0.00570   0.00601  -0.01706  -0.00008
 815   90144.9    110.9     -0.00846   0.24484   0.23651   0.00018
 816   90186.6    110.9      0.00300  -0.29184   0.15169   0.00017
 817   90215.6    110.8     -0.01049  -0.00016  -0.00007  -0.14064
 818   90225.2    110.8      0.04893   0.00012  -0.00049  -0.06331
 819   90277.3    110.8     -0.01419  -0.07244   0.11676   0.00050
 820   90328.1    110.7      0.06713   0.00045   0.00093  -0.41656
 821   90365.2    110.7      0.04644  -0.00073  -0.00072   0.14182
 822   90377.7    110.6     -0.09753   0.19669   0.12309   0.00148
 823   90394.9    110.6      0.01506   0.19384   0.23642   0.00014
 824   90469.8    110.5      0.01497   0.04158  -0.01687  -0.00054
 825   90485.3    110.5     -0.01483  -0.00070   0.00005  -0.47995
 826   90486.5    110.5     -0.00272  -0.03833  -0.03090   0.00757
 827   90577.3    110.4     -0.00098  -0.03308  -0.01279  -0.00035
 828   90611.5    110.4      0.01124   0.00034  -0.00003  -0.26767
 829   90680.0    110.3      0.00867  -0.11631   0.16527   0.00004
 830   90719.4    110.2      0.00768   0.01324  -0.04182   0.00013
 831   90728.2    110.2     -0.01732   0.00006   0.00031   0.02940
 832   90770.8    110.2      0.01220   0.01178  -0.20234  -0.00012
 833   90789.5    110.1      0.01150   0.21649   0.13872   0.00038
 834   90838.4    110.1      0.00325  -0.00014   0.00027  -0.22004
 835   90860.2    110.1     -0.02448   0.21516  -0.15012  -0.00036
 836   90898.6    110.0     -0.02535  -0.11533  -0.08133   0.00022
 837   90935.5    110.0      0.02543   0.00034   0.00007  -0.05999
 838   90974.5    109.9     -0.02202  -0.06564   0.03297  -0.00054
 839   91000.5    109.9     -0.00460  -0.01476  -0.03044  -0.00001
 840   91010.3    109.9     -0.04792   0.00008   0.00004   0.22755
 841   91033.3    109.8      0.04955  -0.05931  -0.09290   0.00043
 842   91043.5    109.8      0.00492   0.01623   0.02040   0.00065
 843   91075.6    109.8      0.01384  -0.22033  -0.13324   0.00001
 844   91119.2    109.7      0.00183  -0.00008  -0.00010   0.00849
 845   91144.0    109.7      0.01085   0.00004   0.00036  -0.02791
 846   91150.2    109.7     -0.01102  -0.03300  -0.02810  -0.00023
 847   91243.3    109.6     -0.03329   0.11639   0.05380   0.00017
 848   91273.0    109.6      0.00179   0.00022  -0.00003  -0.02629
 849   91377.6    109.4     -0.00055  -0.00003   0.00005   0.03029
 850   91405.8    109.4     -0.01163  -0.01635  -0.03071   0.00011
 851   91411.6    109.4      0.02164  -0.00015   0.00011   0.00877
 852   91417.8    109.4     -0.06836  -0.00283   0.06130  -0.00034
 853   91421.6    109.4      0.09146   0.00007  -0.00056  -0.04110
 854   91506.1    109.3     -0.00970  -0.08103  -0.02217  -0.00018
 855   91528.6    109.3      0.00053   0.00002   0.00006  -0.10328
 856   91578.8    109.2      0.01772   0.03877  -0.16899  -0.00090
 857   91585.8    109.2     -0.02458  -0.00035  -0.00176   0.05948
 858   91593.1    109.2     -0.01241  -0.08914   0.01944  -0.00040
 859   91644.3    109.1     -0.18059   0.05139  -0.05166   0.00249
 860   91645.5    109.1      0.17499   0.00279  -0.00277  -0.04754
 861   91687.6    109.1      0.00024  -0.08406   0.10165   0.00002
 862   91783.1    109.0     -0.00245  -0.08769  -0.00015   0.00010
 863   91787.5    108.9     -0.05998   0.00034   0.00032  -0.19623
 864   91819.9    108.9      0.08988  -0.01569  -0.06509  -0.00134
 865   91836.8    108.9      0.00656  -0.00822   0.06318   0.00038
 866   91867.1    108.9      0.10654  -0.20097   0.12879  -0.00173
 867   91876.5    108.8     -0.13292  -0.00203   0.00119   0.14859
 868   91894.1    108.8      0.02414  -0.00720  -0.16357   0.00033
 869   91914.2    108.8     -0.02184   0.00009   0.00000  -0.21135
 870   91941.2    108.8      0.03047   0.12570  -0.07466   0.00026
 871   91951.7    108.8     -0.00257  -0.02301   0.11984  -0.00006
 872   91973.9    108.7     -0.00433  -0.01094   0.01122   0.00008
 873   91994.2    108.7     -0.02126   0.04084   0.12768  -0.00006
 874   92019.0    108.7      0.04981  -0.00012   0.00022  -0.16012
 875   92032.4    108.7     -0.03669  -0.04040   0.00239   0.00054
 876   92067.9    108.6     -0.02220  -0.02079  -0.01190   0.00024
 877   92074.4    108.6      0.04420   0.00008   0.00005  -0.11769
 878   92124.5    108.5     -0.03317  -0.00008   0.00014  -0.25021
 879   92161.8    108.5      0.04295  -0.22099  -0.08126   0.00103
 880   92164.7    108.5     -0.05354   0.01254   0.00529   0.01959
 881   92172.4    108.5      0.01191   0.11525   0.16914   0.00010
 882   92205.4    108.5     -0.00383   0.00031  -0.00039   0.07688
 883   92246.4    108.4     -0.00035   0.11122  -0.16534  -0.00050
 884   92272.1    108.4     -0.04098  -0.00081  -0.08923  -0.00062
 885   92283.4    108.4      0.05647   0.00013  -0.00093   0.11312
 886   92357.2    108.3     -0.03791  -0.10522   0.02004   0.00064
 887   92374.2    108.3     -0.00785   0.13553   0.10577  -0.00030
 888   92395.9    108.2     -0.05507   0.00111  -0.00031   0.03875
 889   92405.1    108.2     -0.08025   0.28859   0.08886   0.00036
 890   92415.9    108.2     -0.15634  -0.03628   0.20718   0.07765
 891   92416.1    108.2      0.29865   0.02719  -0.15954   0.10022
 892   92428.2    108.2     -0.01105   0.00041  -0.00003   0.21314
 893   92501.1    108.1     -0.01103  -0.23504  -0.08655  -0.00002
 894   92519.1    108.1      0.00293   0.06307   0.09465   0.00002
 895   92533.8    108.1      0.02782   0.00034   0.00038  -0.04198
 896   92607.4    108.0      0.06361   0.00913  -0.22069  -0.00064
 897   92618.8    108.0     -0.04133   0.06604  -0.18918  -0.00042
 898   92652.1    107.9      0.01288   0.00009  -0.00057   0.01731
 899   92668.0    107.9     -0.01917   0.11147   0.11529  -0.00021
 900   92707.7    107.9      0.01134   0.10158  -0.03471   0.00018
 901   92730.9    107.8      0.00083  -0.00024   0.00003  -0.01942
 902   92747.6    107.8     -0.04677  -0.00990  -0.00019   0.00142
 903   92752.9    107.8      0.06543   0.00020   0.00002  -0.23871
 904   92774.9    107.8     -0.00173  -0.00002  -0.00038   0.23546
 905   92811.1    107.7     -0.05388  -0.28155   0.47178   0.00055
 906   92834.9    107.7      0.14769  -0.00099   0.00133  -0.11543
 907   92839.4    107.7     -0.09064  -0.12796   0.11247   0.00038
 908   92905.5    107.6      0.03703   0.00009  -0.00066   0.40172
 909   92972.4    107.6      0.02314   0.00040  -0.00066   0.00648
 910   92999.8    107.5     -0.04693   0.11915  -0.15631  -0.00068
 911   93006.8    107.5     -0.02521   0.06387  -0.05582  -0.00062
 912   93027.0    107.5      0.01962  -0.00014   0.00012  -0.22950
 913   93046.2    107.5      0.03918   0.00004  -0.00027   0.22090
 914   93065.0    107.5     -0.01403   0.12641  -0.02234   0.00065
 915   93146.5    107.4     -0.02766  -0.01603   0.04537  -0.00043
 916   93172.6    107.3      0.04836   0.10738  -0.05591  -0.00143
 917   93190.6    107.3     -0.00110  -0.00086   0.00027  -0.29715
 918   93193.6    107.3     -0.04541   0.03369   0.15750  -0.00095
 919   93226.4    107.3      0.00268  -0.00698  -0.06365  -0.00048
 920   93258.4    107.2      0.00723   0.09217  -0.13433  -0.00014
 921   93299.6    107.2      0.08535   0.00086  -0.00001  -0.20234
 922   93305.9    107.2     -0.05919   0.16381  -0.01769   0.00065
 923   93334.2    107.1      0.01156  -0.07851  -0.15843  -0.00093
 924   93367.5    107.1      0.09424  -0.00190  -0.00012   0.20366
 925   93373.6    107.1     -0.26513   0.18362  -0.01001  -0.00102
 926   93399.7    107.1      0.26484   0.00221  -0.00024   0.21952
 927   93443.5    107.0     -0.08516   0.01998   0.03872  -0.00031
 928   93480.8    107.0     -0.14291  -0.00020   0.00048  -0.34908
 929   93514.4    106.9     -0.00361   0.00038   0.00028  -0.02936
 930   93563.6    106.9     -0.06098   0.00053   0.00062  -0.28931
 931   93568.5    106.9      0.04305   0.22250   0.15782   0.00078
 932   93629.4    106.8     -0.07873   0.00044   0.00034  -0.28821
 933   93662.5    106.8      0.01951  -0.13130   0.23854   0.00001
 934   93753.4    106.7     -0.00080   0.00004  -0.00031   0.19147
 935   93828.6    106.6     -0.02471   0.13613   0.05609  -0.00060
 936   93848.9    106.6      0.03317  -0.00014   0.00069  -0.43985
 937   93879.9    106.5      0.03592   0.02900  -0.21054  -0.00220
 938   93904.1    106.5      0.03669   0.00070  -0.00132   0.57500
 939   93921.7    106.5     -0.23729  -0.16592   0.09228   0.00581
 940   93926.0    106.5      0.23000  -0.00362   0.00222  -0.18130
 941   93942.2    106.4      0.09315   0.08691  -0.17442   0.01021
 942   93948.4    106.4     -0.10066   0.00211  -0.00329  -0.47726
 943   94015.3    106.4      0.04522   0.07360   0.05153   0.00121
 944   94032.8    106.3     -0.02521   0.00081   0.00032  -0.13582
 945   94065.1    106.3      0.03522  -0.13972  -0.01912  -0.00046
 946   94094.4    106.3     -0.01279   0.02003   0.00845  -0.00021
 947   94126.7    106.2      0.03566   0.00111   0.00054  -0.04322
 948   94134.3    106.2      0.00167   0.17078   0.08246   0.00011
 949   94187.9    106.2      0.01544  -0.00015  -0.00026   0.25105
 950   94230.8    106.1     -0.03584   0.00051  -0.00036   0.41469
 951   94283.1    106.1     -0.01106   0.13469  -0.22564  -0.00012
 952   94292.0    106.1      0.02127  -0.00009  -0.00046   0.00754
 953   94339.8    106.0     -0.03044  -0.02741  -0.04325   0.00044
 954   94359.1    106.0      0.01091   0.00006  -0.00015  -0.09312
 955   94377.5    106.0      0.00325  -0.00017   0.00036  -0.09409
 956   94398.2    105.9      0.11631   0.01153  -0.12088   0.00060
 957   94400.8    105.9      0.73559   0.00540  -0.01422   0.04491
 958   94401.3    105.9     -0.81271  -0.05934   0.16683   0.00504
 959   94463.7    105.9     -0.00435  -0.16727   0.26847   0.00027
 960   94522.2    105.8      0.00207  -0.00038   0.00036   0.02920
 961   94549.6    105.8      0.00831  -0.00003   0.00011  -0.06072
 962   94617.0    105.7      0.00734   0.01554   0.00764  -0.00005
 963   94662.6    105.6     -0.02402   0.15348   0.15110   0.00004
 964   94697.5    105.6      0.00933  -0.00003  -0.00033  -0.11829
 965   94715.2    105.6      0.04032   0.00049  -0.00073  -0.02086
 966   94724.9    105.6     -0.05291   0.17872  -0.24798  -0.00012
 967   94802.5    105.5      0.00798  -0.17262  -0.15580  -0.00020
 968   94829.0    105.5      0.01627   0.01206  -0.12794   0.00245
 969   94843.0    105.4     -0.23906  -0.00045  -0.00107  -0.37989
 970   94845.2    105.4      0.21589  -0.06130  -0.07661   0.00229
 971   94875.7    105.4      0.00078  -0.06805  -0.00555  -0.00001
 972   94883.6    105.4     -0.02186   0.00034  -0.00034   0.17932
 973   94910.1    105.4      0.01447  -0.11237  -0.01765   0.00050
 974   94938.0    105.3      0.02417  -0.31159  -0.15714   0.00039
 975   94962.7    105.3      0.00532  -0.01330   0.19007  -0.00041
 976   94987.9    105.3      0.22742  -0.01690  -0.00868  -0.00258
 977   94989.7    105.3     -0.23480   0.00043   0.00028   0.22953
 978   95007.5    105.3     -0.00564  -0.01418  -0.04314  -0.00013
 979   95040.8    105.2     -0.01523   0.18612   0.06568  -0.00007
 980   95104.7    105.1      0.02090   0.00077   0.00032   0.02029
 981   95117.9    105.1     -0.01179  -0.13368  -0.01370   0.00007
 982   95133.8    105.1      0.03696  -0.00044   0.00055  -0.01408
 983   95139.0    105.1     -0.01329  -0.03094   0.09979   0.00019
 984   95197.2    105.0     -0.02912  -0.00032  -0.00038  -0.03603
 985   95236.7    105.0      0.08091   0.01377   0.26623   0.00067
 986   95243.7    105.0     -0.05202   0.00021  -0.00318   0.03599
 987   95251.9    105.0     -0.01738  -0.17118  -0.00720  -0.00006
 988   95254.9    105.0     -0.00505  -0.05580  -0.00299  -0.00008
 989   95273.3    105.0     -0.02321  -0.00070  -0.00060   0.04896
 990   95293.7    104.9     -0.00262  -0.09593   0.04224  -0.00009
 991   95336.0    104.9     -0.01161   0.03565  -0.06717  -0.00000
 992   95363.3    104.9     -0.02627   0.12882   0.10438   0.00000
 993   95382.8    104.8      0.04176  -0.00071  -0.00058   0.00211
 994   95420.4    104.8     -0.00906   0.12726   0.01978  -0.00002
 995   95474.1    104.7     -0.04239   0.17977   0.09235   0.00065
 996   95517.0    104.7      0.26838   0.00175  -0.00131  -0.16447
 997   95517.6    104.7     -0.23162  -0.03621   0.04652  -0.00574
 998   95572.3    104.6      0.04328   0.00041  -0.00032   0.19667
 999   95598.6    104.6     -0.04138  -0.20721   0.02398   0.00052
 1000   95632.0    104.6      0.00631   0.06265  -0.03650   0.00008

Total run time:    22160.910 sec

           *** ORCA-CIS/TD-DFT FINISHED WITHOUT ERROR ***

Maximum memory used throughout the entire CIS-calculation: 4459.1 MB

-----------------------
CIS/TD-DFT TOTAL ENERGY
-----------------------

    E(SCF)  =   -921.427831883 Eh
    DE(CIS) =      0.066951615 Eh (Root  1)
    ----------------------------- ---------
    E(tot)  =   -921.360880268 Eh



-------------------------------------------------------------------------------
                          DFT DISPERSION CORRECTION                            
                                                                               
                                 DFTD4 V2.5                                    
-------------------------------------------------------------------------------
The B3LYP functional is recognized
Active option DFTDOPT                   ...         5   

Starting D4
-------------------------   ----------------
Dispersion correction           -0.103732327
-------------------------   ----------------


-------------------------   --------------------
FINAL SINGLE POINT ENERGY      -921.464612594911
-------------------------   --------------------


                            ***************************************
                            *     ORCA property calculations      *
                            ***************************************

                                    ---------------------
                                    Active property flags
                                    ---------------------
   (+) Dipole Moment


------------------------------------------------------------------------------
                       ORCA ELECTRIC PROPERTIES CALCULATION
------------------------------------------------------------------------------

Dipole Moment Calculation                       ... on
Quadrupole Moment Calculation                   ... off
Polarizability Calculation                      ... off
GBWName                                         ... Stone-Wales_defect_no_loss.gbw
Electron density                                ... Stone-Wales_defect_no_loss.scfp
The origin for moment calculation is the CENTER OF MASS  = ( 0.001619,  0.015332  0.014129)

-------------
DIPOLE MOMENT
-------------
                                X             Y             Z
Electronic contribution:     -0.51434       0.86973       0.00079
Nuclear contribution   :      0.37438      -0.63369      -0.00054
                        -----------------------------------------
Total Dipole Moment    :     -0.13996       0.23604       0.00025
                        -----------------------------------------
Magnitude (a.u.)       :      0.27441
Magnitude (Debye)      :      0.69749



--------------------
Rotational spectrum 
--------------------
 
Rotational constants in cm-1:     0.012900     0.009358     0.005423 
Rotational constants in MHz :   386.723651   280.532199   162.588962 

 Dipole components along the rotational axes: 
x,y,z [a.u.] :     0.274410    -0.000112     0.000014 
x,y,z [Debye]:     0.697495    -0.000284     0.000035 

 

Timings for individual modules:

Sum of individual times         ...    23100.337 sec (= 385.006 min)
GTO integral calculation        ...        0.807 sec (=   0.013 min)   0.0 %
SCF iterations                  ...      938.481 sec (=  15.641 min)   4.1 %
CIS module                      ...    22161.049 sec (= 369.351 min)  95.9 %
                             ****ORCA TERMINATED NORMALLY****
TOTAL RUN TIME: 0 days 6 hours 25 minutes 1 seconds 195 msec
