
                                 *****************
                                 * O   R   C   A *
                                 *****************

                                            #,                                       
                                            ###                                      
                                            ####                                     
                                            #####                                    
                                            ######                                   
                                           ########,                                 
                                     ,,################,,,,,                         
                               ,,#################################,,                 
                          ,,##########################################,,             
                       ,#########################################, ''#####,          
                    ,#############################################,,   '####,        
                  ,##################################################,,,,####,       
                ,###########''''           ''''###############################       
              ,#####''   ,,,,##########,,,,          '''####'''          '####       
            ,##' ,,,,###########################,,,                        '##       
           ' ,,###''''                  '''############,,,                           
         ,,##''                                '''############,,,,        ,,,,,,###''
      ,#''                                            '''#######################'''  
     '                                                          ''''####''''         
             ,#######,   #######,   ,#######,      ##                                
            ,#'     '#,  ##    ##  ,#'     '#,    #''#        ######   ,####,        
            ##       ##  ##   ,#'  ##            #'  '#       #        #'  '#        
            ##       ##  #######   ##           ,######,      #####,   #    #        
            '#,     ,#'  ##    ##  '#,     ,#' ,#      #,         ##   #,  ,#        
             '#######'   ##     ##  '#######'  #'      '#     #####' # '####'        



                  #######################################################
                  #                        -***-                        #
                  #          Department of theory and spectroscopy      #
                  #    Directorship and core code : Frank Neese         #
                  #        Max Planck Institute fuer Kohlenforschung    #
                  #                Kaiser Wilhelm Platz 1               #
                  #                 D-45470 Muelheim/Ruhr               #
                  #                      Germany                        #
                  #                                                     #
                  #                  All rights reserved                #
                  #                        -***-                        #
                  #######################################################



                         Program Version 5.0.4 -  RELEASE  -

 With contributions from (in alphabetic order):
   Daniel Aravena         : Magnetic Suceptibility
   Michael Atanasov       : Ab Initio Ligand Field Theory (pilot matlab implementation)
   Alexander A. Auer      : GIAO ZORA, VPT2 properties, NMR spectrum
   Ute Becker             : Parallelization
   Giovanni Bistoni       : ED, misc. LED, open-shell LED, HFLD
   Martin Brehm           : Molecular dynamics
   Dmytro Bykov           : SCF Hessian
   Vijay G. Chilkuri      : MRCI spin determinant printing, contributions to CSF-ICE
   Dipayan Datta          : RHF DLPNO-CCSD density
   Achintya Kumar Dutta   : EOM-CC, STEOM-CC
   Dmitry Ganyushin       : Spin-Orbit,Spin-Spin,Magnetic field MRCI
   Miquel Garcia          : C-PCM and meta-GGA Hessian, CC/C-PCM, Gaussian charge scheme
   Yang Guo               : DLPNO-NEVPT2, F12-NEVPT2, CIM, IAO-localization
   Andreas Hansen         : Spin unrestricted coupled pair/coupled cluster methods
   Benjamin Helmich-Paris : MC-RPA, TRAH-SCF, COSX integrals
   Lee Huntington         : MR-EOM, pCC
   Robert Izsak           : Overlap fitted RIJCOSX, COSX-SCS-MP3, EOM
   Marcus Kettner         : VPT2
   Christian Kollmar      : KDIIS, OOCD, Brueckner-CCSD(T), CCSD density, CASPT2, CASPT2-K
   Simone Kossmann        : Meta GGA functionals, TD-DFT gradient, OOMP2, MP2 Hessian
   Martin Krupicka        : Initial AUTO-CI
   Lucas Lang             : DCDCAS
   Marvin Lechner         : AUTO-CI (C++ implementation), FIC-MRCC
   Dagmar Lenk            : GEPOL surface, SMD
   Dimitrios Liakos       : Extrapolation schemes; Compound Job, initial MDCI parallelization
   Dimitrios Manganas     : Further ROCIS development; embedding schemes
   Dimitrios Pantazis     : SARC Basis sets
   Anastasios Papadopoulos: AUTO-CI, single reference methods and gradients
   Taras Petrenko         : DFT Hessian,TD-DFT gradient, ASA, ECA, R-Raman, ABS, FL, XAS/XES, NRVS
   Peter Pinski           : DLPNO-MP2, DLPNO-MP2 Gradient
   Christoph Reimann      : Effective Core Potentials
   Marius Retegan         : Local ZFS, SOC
   Christoph Riplinger    : Optimizer, TS searches, QM/MM, DLPNO-CCSD(T), (RO)-DLPNO pert. Triples
   Tobias Risthaus        : Range-separated hybrids, TD-DFT gradient, RPA, STAB
   Michael Roemelt        : Original ROCIS implementation
   Masaaki Saitow         : Open-shell DLPNO-CCSD energy and density
   Barbara Sandhoefer     : DKH picture change effects
   Avijit Sen             : IP-ROCIS
   Kantharuban Sivalingam : CASSCF convergence, NEVPT2, FIC-MRCI
   Bernardo de Souza      : ESD, SOC TD-DFT
   Georgi Stoychev        : AutoAux, RI-MP2 NMR, DLPNO-MP2 response
   Willem Van den Heuvel  : Paramagnetic NMR
   Boris Wezisla          : Elementary symmetry handling
   Frank Wennmohs         : Technical directorship


 We gratefully acknowledge several colleagues who have allowed us to
 interface, adapt or use parts of their codes:
   Stefan Grimme, W. Hujo, H. Kruse, P. Pracht,  : VdW corrections, initial TS optimization,
                  C. Bannwarth, S. Ehlert          DFT functionals, gCP, sTDA/sTD-DF
   Ed Valeev, F. Pavosevic, A. Kumar             : LibInt (2-el integral package), F12 methods
   Garnet Chan, S. Sharma, J. Yang, R. Olivares  : DMRG
   Ulf Ekstrom                                   : XCFun DFT Library
   Mihaly Kallay                                 : mrcc  (arbitrary order and MRCC methods)
   Jiri Pittner, Ondrej Demel                    : Mk-CCSD
   Frank Weinhold                                : gennbo (NPA and NBO analysis)
   Christopher J. Cramer and Donald G. Truhlar   : smd solvation model
   Lars Goerigk                                  : TD-DFT with DH, B97 family of functionals
   V. Asgeirsson, H. Jonsson                     : NEB implementation
   FAccTs GmbH                                   : IRC, NEB, NEB-TS, DLPNO-Multilevel, CI-OPT
                                                   MM, QMMM, 2- and 3-layer-ONIOM, Crystal-QMMM,
                                                   LR-CPCM, SF, NACMEs, symmetry and pop. for TD-DFT,
                                                   nearIR, NL-DFT gradient (VV10), updates on ESD,
                                                   ML-optimized integration grids
   S Lehtola, MJT Oliveira, MAL Marques          : LibXC Library
   Liviu Ungur et al                             : ANISO software


 Your calculation uses the libint2 library for the computation of 2-el integrals
 For citations please refer to: http://libint.valeyev.net

 Your ORCA version has been built with support for libXC version: 5.1.0
 For citations please refer to: https://tddft.org/programs/libxc/

 This ORCA versions uses:
   CBLAS   interface :  Fast vector & matrix operations
   LAPACKE interface :  Fast linear algebra routines
   Shared memory     :  Shared parallel matrices


Your calculation utilizes the atom-pairwise dispersion correction
based on tight binding partial charges (D4)
Cite in your paper:
E.Caldeweyher, C.Bannwarth, S.Grimme, J.Chem.Phys., (2017), 147, 034112.
E.Caldeweyher, S.Ehlert, A.Hansen, H.Neugebauer, S.Grimme, J.Chem.Phys., (2018), in progress.
   

================================================================================

----- Orbital basis set information -----
Your calculation utilizes the basis: 6-311+G**
   H, Li - Ne  : R. Krishnan, J. S. Binkley, R. Seeger and J. A. Pople, J. Chem. Phys. 72, 650 (1980).
   Na - Ar     : A. D. McLean and G. S. Chandler J. Chem. Phys. 72, 5639, (1980).
   K  - Ca     : J.-P. Blaudeau, M. P. McGrath, L. A. Curtiss and L. Radom, J. Chem. Phys. 107, 5016 (1997).
   Ga - Kr     : L. A. Curtiss, M. P. McGrath, J.-P. Blandeau, N. E. Davis, R. C. Binning and L. Radom, J. Chem. Phys. 103, 6104 (1995).
   Pol./Diff.
   H, Li - Cl  : T. Clark, J. Chandrasekhar and P. v. R. Schleyer, J. Comp. Chem. 4, 294 (1983).
   H - Ne      : M. J. Frisch, J. A. Pople and J. S. Binkley, J. Chem. Phys. 80, 3265 (1984).

----- AuxJ basis set information -----
Your calculation utilizes the auxiliary basis: def2/J
   F. Weigend, Phys. Chem. Chem. Phys. 8, 1057 (2006).

================================================================================
                                        WARNINGS
                       Please study these warnings very carefully!
================================================================================

INFO   : Checking CIS options ...

WARNING: CIS/ROCIS methods need fully converged wavefunctions
  ===> : Setting SCFConvForced true
         You can overwrite this default with %scf ConvForced false 


INFO   : the flag for use of the SHARK integral package has been found!

================================================================================
                                       INPUT FILE
================================================================================
NAME = loss_eight_seven_eleven_twelve_three_four_two_one_five_six_spectra.inp
|  1> !b3lyp 6-311+g** d4
|  2> 
|  3> %maxcore 5000
|  4> %pal
|  5> nprocs 8
|  6> end
|  7> 
|  8> %tddft
|  9>   nroots 1000
| 10>   end
| 11>   
| 12> * xyz 0 1  
| 13>   C   2.38176577478174     -2.80604465461656     -0.00001343939367
| 14>   C   1.32578443596252     -3.44045494695259     -0.00004080802389
| 15>   C   0.03409560722768     -2.93814352559578     -0.00011167045750
| 16>   C   -1.24451111338805     -3.47728892405310     -0.00015327822909
| 17>   C   -2.31850588614105     -2.87667941311949     -0.00021797345824
| 18>   C   -2.52373103817797     -1.50385247861538     -0.00027045265000
| 19>   C   -3.62603423024341     -0.66377274905051     -0.00034314972686
| 20>   C   -3.63564495832900      0.56802232480521     -0.00038133316261
| 21>   C   -2.54884998050652      1.42813823006206     -0.00035826757006
| 22>   C   -2.36262152063186      2.80796656837341     -0.00039320891087
| 23>   C   -1.27939757174994      3.38928529613664     -0.00036254008165
| 24>   C   0.01781394036379      2.87142753238684     -0.00029086748466
| 25>   C   1.22857899604254      3.58807962257957     -0.00025892876174
| 26>   C   2.42159228519388      2.91915379389964     -0.00018802778808
| 27>   C   2.44144607677826      1.51239666271349     -0.00014397081843
| 28>   C   3.55930386153896      0.67529817483180     -0.00007118884636
| 29>   C   3.62963219266427     -0.55203090829492     -0.00002969665187
| 30>   C   2.54894583580589     -1.43006620787101     -0.00005066085921
| 31>   C   1.25140198121826     -0.72015586582872     -0.00012494412784
| 32>   C   1.22392405651188      0.72216065691158     -0.00017700685684
| 33>   C   -0.02133310699844      1.42060495979096     -0.00024524930685
| 34>   C   -1.26617154458923      0.69161335582824     -0.00028404966724
| 35>   C   -1.24784520734046     -0.74897998858116     -0.00023321451590
| 36>   C   0.01272779528317     -1.45582862845954     -0.00016314148399
| 37>   H   1.19185707821147      4.66982621784994     -0.00029356663862
| 38>   H   3.36365155895983      3.45210651386760     -0.00016221476972
| 39> **                         ****END OF INPUT****
================================================================================

                       ****************************
                       * Single Point Calculation *
                       ****************************

---------------------------------
CARTESIAN COORDINATES (ANGSTROEM)
---------------------------------
  C      2.381766   -2.806045   -0.000013
  C      1.325784   -3.440455   -0.000041
  C      0.034096   -2.938144   -0.000112
  C     -1.244511   -3.477289   -0.000153
  C     -2.318506   -2.876679   -0.000218
  C     -2.523731   -1.503852   -0.000270
  C     -3.626034   -0.663773   -0.000343
  C     -3.635645    0.568022   -0.000381
  C     -2.548850    1.428138   -0.000358
  C     -2.362622    2.807967   -0.000393
  C     -1.279398    3.389285   -0.000363
  C      0.017814    2.871428   -0.000291
  C      1.228579    3.588080   -0.000259
  C      2.421592    2.919154   -0.000188
  C      2.441446    1.512397   -0.000144
  C      3.559304    0.675298   -0.000071
  C      3.629632   -0.552031   -0.000030
  C      2.548946   -1.430066   -0.000051
  C      1.251402   -0.720156   -0.000125
  C      1.223924    0.722161   -0.000177
  C     -0.021333    1.420605   -0.000245
  C     -1.266172    0.691613   -0.000284
  C     -1.247845   -0.748980   -0.000233
  C      0.012728   -1.455829   -0.000163
  H      1.191857    4.669826   -0.000294
  H      3.363652    3.452107   -0.000162

----------------------------
CARTESIAN COORDINATES (A.U.)
----------------------------
  NO LB      ZA    FRAG     MASS         X           Y           Z
   0 C     6.0000    0    12.011    4.500885   -5.302656   -0.000025
   1 C     6.0000    0    12.011    2.505369   -6.501518   -0.000077
   2 C     6.0000    0    12.011    0.064431   -5.552287   -0.000211
   3 C     6.0000    0    12.011   -2.351785   -6.571124   -0.000290
   4 C     6.0000    0    12.011   -4.381341   -5.436136   -0.000412
   5 C     6.0000    0    12.011   -4.769160   -2.841869   -0.000511
   6 C     6.0000    0    12.011   -6.852212   -1.254349   -0.000648
   7 C     6.0000    0    12.011   -6.870373    1.073407   -0.000721
   8 C     6.0000    0    12.011   -4.816628    2.698790   -0.000677
   9 C     6.0000    0    12.011   -4.464708    5.306288   -0.000743
  10 C     6.0000    0    12.011   -2.417711    6.404821   -0.000685
  11 C     6.0000    0    12.011    0.033663    5.426212   -0.000550
  12 C     6.0000    0    12.011    2.321678    6.780488   -0.000489
  13 C     6.0000    0    12.011    4.576146    5.516401   -0.000355
  14 C     6.0000    0    12.011    4.613664    2.858015   -0.000272
  15 C     6.0000    0    12.011    6.726110    1.276129   -0.000135
  16 C     6.0000    0    12.011    6.859011   -1.043187   -0.000056
  17 C     6.0000    0    12.011    4.816810   -2.702433   -0.000096
  18 C     6.0000    0    12.011    2.364807   -1.360897   -0.000236
  19 C     6.0000    0    12.011    2.312881    1.364686   -0.000334
  20 C     6.0000    0    12.011   -0.040314    2.684554   -0.000463
  21 C     6.0000    0    12.011   -2.392717    1.306960   -0.000537
  22 C     6.0000    0    12.011   -2.358086   -1.415367   -0.000441
  23 C     6.0000    0    12.011    0.024052   -2.751117   -0.000308
  24 H     1.0000    0     1.008    2.252283    8.824693   -0.000555
  25 H     1.0000    0     1.008    6.356380    6.523536   -0.000307

--------------------------------
INTERNAL COORDINATES (ANGSTROEM)
--------------------------------
 C      0   0   0     0.000000000000     0.00000000     0.00000000
 C      1   0   0     1.231898132033     0.00000000     0.00000000
 C      2   1   0     1.385920921022   127.75343806     0.00000000
 C      3   2   1     1.387628519602   135.88644261   179.99989490
 C      4   3   2     1.230526944325   127.92127917   180.00004355
 C      5   4   3     1.388081826796   127.71744298     0.00000000
 C      6   5   4     1.385931558393   135.81373785   180.00004951
 C      7   6   5     1.231832566353   127.75852588   179.99990277
 C      8   7   6     1.385973554880   127.91192141     0.00000000
 C      9   8   7     1.392338781940   136.04542162   179.99993315
 C     10   9   8     1.229351694032   125.90697731   180.00005928
 C     11  10   9     1.396758524504   130.01719742     0.00000000
 C     12  11  10     1.406962060416   127.61640068   179.99997862
 C     13  12  11     1.367750882798   120.09923213   180.00003035
 C     14  13  12     1.406897224791   120.08804014     0.00000000
 C     15  14  13     1.396545706614   127.63596978   179.99999415
 C     16  15  14     1.229342407212   130.10697149   179.99994985
 C      1   2   3     1.386097348709   127.92394699     0.00000000
 C     18   1   2     1.479051301962   111.75646046     0.00000000
 C     19  18   1     1.442578244265   119.77531214   180.00022778
 C     20  19  18     1.427756930348   120.37877543   180.00016997
 C     21  20  19     1.442585004725   120.35892162     0.00000000
 C     22  21  20     1.440709908753   119.62488467     0.00000000
 C     19  18   1     1.440669342368   120.60920919     0.00000000
 H     13  12  11     1.082369713558   118.67703256     0.00000000
 H     14  13  12     1.082365131403   121.22231725   180.00001579

---------------------------
INTERNAL COORDINATES (A.U.)
---------------------------
 C      0   0   0     0.000000000000     0.00000000     0.00000000
 C      1   0   0     2.327950094431     0.00000000     0.00000000
 C      2   1   0     2.619010984003   127.75343806     0.00000000
 C      3   2   1     2.622237877666   135.88644261   179.99989490
 C      4   3   2     2.325358925185   127.92127917   180.00004355
 C      5   4   3     2.623094504118   127.71744298     0.00000000
 C      6   5   4     2.619031085721   135.81373785   180.00004951
 C      7   6   5     2.327826193252   127.75852588   179.99990277
 C      8   7   6     2.619110447581   127.91192141     0.00000000
 C      9   8   7     2.631138983505   136.04542162   179.99993315
 C     10   9   8     2.323138023993   125.90697731   180.00005928
 C     11  10   9     2.639491086532   130.01719742     0.00000000
 C     12  11  10     2.658772975004   127.61640068   179.99997862
 C     13  12  11     2.584674587917   120.09923213   180.00003035
 C     14  13  12     2.658650453429   120.08804014     0.00000000
 C     15  14  13     2.639088919003   127.63596978   179.99999415
 C     16  15  14     2.323120474446   130.10697149   179.99994985
 C      1   2   3     2.619344384014   127.92394699     0.00000000
 C     18   1   2     2.795001898727   111.75646046     0.00000000
 C     19  18   1     2.726077808414   119.77531214   180.00022778
 C     20  19  18     2.698069584165   120.37877543   180.00016997
 C     21  20  19     2.726090583832   120.35892162     0.00000000
 C     22  21  20     2.722547165969   119.62488467     0.00000000
 C     19  18   1     2.722470506611   120.60920919     0.00000000
 H     13  12  11     2.045382334276   118.67703256     0.00000000
 H     14  13  12     2.045373675256   121.22231725   180.00001579

---------------------
BASIS SET INFORMATION
---------------------
There are 2 groups of distinct atoms

 Group   1 Type C   : 12s6p1d contracted to 5s4p1d pattern {63111/3111/1}
 Group   2 Type H   : 5s1p contracted to 3s1p pattern {311/1}

Atom   0C    basis set group =>   1
Atom   1C    basis set group =>   1
Atom   2C    basis set group =>   1
Atom   3C    basis set group =>   1
Atom   4C    basis set group =>   1
Atom   5C    basis set group =>   1
Atom   6C    basis set group =>   1
Atom   7C    basis set group =>   1
Atom   8C    basis set group =>   1
Atom   9C    basis set group =>   1
Atom  10C    basis set group =>   1
Atom  11C    basis set group =>   1
Atom  12C    basis set group =>   1
Atom  13C    basis set group =>   1
Atom  14C    basis set group =>   1
Atom  15C    basis set group =>   1
Atom  16C    basis set group =>   1
Atom  17C    basis set group =>   1
Atom  18C    basis set group =>   1
Atom  19C    basis set group =>   1
Atom  20C    basis set group =>   1
Atom  21C    basis set group =>   1
Atom  22C    basis set group =>   1
Atom  23C    basis set group =>   1
Atom  24H    basis set group =>   2
Atom  25H    basis set group =>   2
---------------------------------
AUXILIARY/J BASIS SET INFORMATION
---------------------------------
There are 2 groups of distinct atoms

 Group   1 Type C   : 12s5p4d2f1g contracted to 6s4p3d1f1g pattern {711111/2111/211/2/1}
 Group   2 Type H   : 5s2p1d contracted to 3s1p1d pattern {311/2/1}

Atom   0C    basis set group =>   1
Atom   1C    basis set group =>   1
Atom   2C    basis set group =>   1
Atom   3C    basis set group =>   1
Atom   4C    basis set group =>   1
Atom   5C    basis set group =>   1
Atom   6C    basis set group =>   1
Atom   7C    basis set group =>   1
Atom   8C    basis set group =>   1
Atom   9C    basis set group =>   1
Atom  10C    basis set group =>   1
Atom  11C    basis set group =>   1
Atom  12C    basis set group =>   1
Atom  13C    basis set group =>   1
Atom  14C    basis set group =>   1
Atom  15C    basis set group =>   1
Atom  16C    basis set group =>   1
Atom  17C    basis set group =>   1
Atom  18C    basis set group =>   1
Atom  19C    basis set group =>   1
Atom  20C    basis set group =>   1
Atom  21C    basis set group =>   1
Atom  22C    basis set group =>   1
Atom  23C    basis set group =>   1
Atom  24H    basis set group =>   2
Atom  25H    basis set group =>   2


           ************************************************************
           *        Program running with 8 parallel MPI-processes     *
           *              working on a common directory               *
           ************************************************************
------------------------------------------------------------------------------
                           ORCA GTO INTEGRAL CALCULATION
                           -- RI-GTO INTEGRALS CHOSEN --
------------------------------------------------------------------------------
------------------------------------------------------------------------------
                   ___                                                        
                  /   \      - P O W E R E D   B Y -                         
                 /     \                                                     
                 |  |  |   _    _      __       _____    __    __             
                 |  |  |  | |  | |    /  \     |  _  \  |  |  /  |          
                  \  \/   | |  | |   /    \    | | | |  |  | /  /          
                 / \  \   | |__| |  /  /\  \   | |_| |  |  |/  /          
                |  |  |   |  __  | /  /__\  \  |    /   |      \           
                |  |  |   | |  | | |   __   |  |    \   |  |\   \          
                \     /   | |  | | |  |  |  |  | |\  \  |  | \   \       
                 \___/    |_|  |_| |__|  |__|  |_| \__\ |__|  \__/        
                                                                              
                      - O R C A' S   B I G   F R I E N D -                    
                                      &                                       
                       - I N T E G R A L  F E E D E R -                       
                                                                              
 v1 FN, 2020, v2 2021                                                         
------------------------------------------------------------------------------


Reading SHARK input file loss_eight_seven_eleven_twelve_three_four_two_one_five_six_spectra.SHARKINP.tmp ... ok
----------------------
SHARK INTEGRAL PACKAGE
----------------------

Number of atoms                             ...     26
Number of basis functions                   ...    540
Number of shells                            ...    248
Maximum angular momentum                    ...      2
Integral batch strategy                     ... SHARK/LIBINT Hybrid
RI-J (if used) integral strategy            ... SPLIT-RIJ (Revised 2003 algorithm where possible)
Printlevel                                  ...      1
Contraction scheme used                     ... SEGMENTED contraction
Coulomb Range Separation                    ... NOT USED
Exchange Range Separation                   ... NOT USED
Finite Nucleus Model                        ... NOT USED
Auxiliary Coulomb fitting basis             ... AVAILABLE
   # of basis functions in Aux-J            ...   1198
   # of shells in Aux-J                     ...    370
   Maximum angular momentum in Aux-J        ...      4
Auxiliary J/K fitting basis                 ... NOT available
Auxiliary Correlation fitting basis         ... NOT available
Auxiliary 'external' fitting basis          ... NOT available
Integral threshold                          ...     1.000000e-10
Primitive cut-off                           ...     1.000000e-11
Primitive pair pre-selection threshold      ...     1.000000e-11

Calculating pre-screening integrals         ... done (  0.0 sec) Dimension = 248
Organizing shell pair data                  ... done (  0.2 sec)
Shell pair information
Total number of shell pairs                 ...     30876
Shell pairs after pre-screening             ...     25535
Total number of primitive shell pairs       ...    110256
Primitive shell pairs kept                  ...     59300
          la=0 lb=0:   6244 shell pairs
          la=1 lb=0:  10478 shell pairs
          la=1 lb=1:   4338 shell pairs
          la=2 lb=0:   2258 shell pairs
          la=2 lb=1:   1980 shell pairs
          la=2 lb=2:    237 shell pairs

Calculating one electron integrals          ... done (  0.0 sec)
Calculating RI/J V-Matrix + Cholesky decomp.... done (  0.1 sec)
Calculating Nuclear repulsion               ... done (  0.0 sec) ENN=   1652.201515645856 Eh

SHARK setup successfully completed in   0.5 seconds

Maximum memory used throughout the entire GTOINT-calculation: 35.9 MB


           ************************************************************
           *        Program running with 8 parallel MPI-processes     *
           *              working on a common directory               *
           ************************************************************
-------------------------------------------------------------------------------
                                 ORCA SCF
-------------------------------------------------------------------------------

------------
SCF SETTINGS
------------
Hamiltonian:
 Density Functional     Method          .... DFT(GTOs)
 Exchange Functional    Exchange        .... B88
   X-Alpha parameter    XAlpha          ....  0.666667
   Becke's b parameter  XBeta           ....  0.004200
 Correlation Functional Correlation     .... LYP
 LDA part of GGA corr.  LDAOpt          .... VWN-5
 Gradients option       PostSCFGGA      .... off
 Hybrid DFT is turned on
   Fraction HF Exchange ScalHFX         ....  0.200000
   Scaling of DF-GGA-X  ScalDFX         ....  0.720000
   Scaling of DF-GGA-C  ScalDFC         ....  0.810000
   Scaling of DF-LDA-C  ScalLDAC        ....  1.000000
   Perturbative correction              ....  0.000000
   Density functional embedding theory  .... OFF
   NL short-range parameter             ....  4.800000
 RI-approximation to the Coulomb term is turned on
   Number of AuxJ basis functions       .... 1198
   RIJ-COSX (HFX calculated with COS-X)).... on


General Settings:
 Integral files         IntName         .... loss_eight_seven_eleven_twelve_three_four_two_one_five_six_spectra
 Hartree-Fock type      HFTyp           .... RHF
 Total Charge           Charge          ....    0
 Multiplicity           Mult            ....    1
 Number of Electrons    NEL             ....  146
 Basis Dimension        Dim             ....  540
 Nuclear Repulsion      ENuc            ....   1652.2015156459 Eh

Convergence Acceleration:
 DIIS                   CNVDIIS         .... on
   Start iteration      DIISMaxIt       ....    12
   Startup error        DIISStart       ....  0.200000
   # of expansion vecs  DIISMaxEq       ....     5
   Bias factor          DIISBfac        ....   1.050
   Max. coefficient     DIISMaxC        ....  10.000
 Trust-Rad. Augm. Hess. CNVTRAH         .... auto
   Auto Start mean grad. ratio tolernc. ....  1.125000
   Auto Start start iteration           ....    20
   Auto Start num. interpolation iter.  ....    10
   Max. Number of Micro iterations      ....    16
   Max. Number of Macro iterations      .... Maxiter - #DIIS iter
   Number of Davidson start vectors     ....     2
   Converg. threshold I  (grad. norm)   ....   5.000e-05
   Converg. threshold II (energy diff.) ....   1.000e-06
   Grad. Scal. Fac. for Micro threshold ....   0.100
   Minimum threshold for Micro iter.    ....   0.010
   NR start threshold (gradient norm)   ....   0.001
   Initial trust radius                 ....   0.400
   Minimum AH scaling param. (alpha)    ....   1.000
   Maximum AH scaling param. (alpha)    .... 1000.000
   Orbital update algorithm             .... Taylor
   White noise on init. David. guess    .... on
   Maximum white noise                  ....   0.010
   Quad. conv. algorithm                .... NR
 SOSCF                  CNVSOSCF        .... on
   Start iteration      SOSCFMaxIt      ....   150
   Startup grad/error   SOSCFStart      ....  0.003300
 Level Shifting         CNVShift        .... on
   Level shift para.    LevelShift      ....    0.2500
   Turn off err/grad.   ShiftErr        ....    0.0010
 Zerner damping         CNVZerner       .... off
 Static damping         CNVDamp         .... on
   Fraction old density DampFac         ....    0.7000
   Max. Damping (<1)    DampMax         ....    0.9800
   Min. Damping (>=0)   DampMin         ....    0.0000
   Turn off err/grad.   DampErr         ....    0.1000
 Fernandez-Rico         CNVRico         .... off

SCF Procedure:
 Maximum # iterations   MaxIter         ....   125
 SCF integral mode      SCFMode         .... Direct
   Integral package                     .... SHARK and LIBINT hybrid scheme
 Reset frequency        DirectResetFreq ....    20
 Integral Threshold     Thresh          ....  1.000e-10 Eh
 Primitive CutOff       TCut            ....  1.000e-11 Eh

Convergence Tolerance:
 Convergence Check Mode ConvCheckMode   .... Total+1el-Energy
 Convergence forced     ConvForced      .... 1
 Energy Change          TolE            ....  1.000e-06 Eh
 1-El. energy change                    ....  1.000e-03 Eh
 Orbital Gradient       TolG            ....  5.000e-05
 Orbital Rotation angle TolX            ....  5.000e-05
 DIIS Error             TolErr          ....  1.000e-06


Diagonalization of the overlap matrix:
Smallest eigenvalue                        ... 2.870e-10
Time for diagonalization                   ...    0.025 sec
Threshold for overlap eigenvalues          ... 1.000e-08
Number of eigenvalues below threshold      ... 4
Smallest eigenvalue above threshold        ... 1.266e-08
Time for construction of square roots      ...    0.035 sec
Total time needed                          ...    0.061 sec

Time for model grid setup =    0.262 sec

------------------------------
INITIAL GUESS: MODEL POTENTIAL
------------------------------
Loading Hartree-Fock densities                     ... done
Calculating cut-offs                               ... done
Initializing the effective Hamiltonian             ... done
Setting up the integral package (SHARK)            ... done
Starting the Coulomb interaction                   ... done (   0.3 sec)
Reading the grid                                   ... done
Mapping shells                                     ... done
Starting the XC term evaluation                    ... done (   0.4 sec)
  promolecular density results
     # of electrons  =    145.985253840
     EX              =   -123.927013147
     EC              =     -5.044448007
     EX+EC           =   -128.971461154
Transforming the Hamiltonian                       ... done (   0.0 sec)
Diagonalizing the Hamiltonian                      ... done (   0.0 sec)
Back transforming the eigenvectors                 ... done (   0.0 sec)
Now organizing SCF variables                       ... done
                      ------------------
                      INITIAL GUESS DONE (   1.1 sec)
                      ------------------
-------------------
DFT GRID GENERATION
-------------------

General Integration Accuracy     IntAcc      ... 4.388
Radial Grid Type                 RadialGrid  ... OptM3 with GC (2021)
Angular Grid (max. ang.)         AngularGrid ... 4 (Lebedev-302)
Angular grid pruning method      GridPruning ... 4 (adaptive)
Weight generation scheme         WeightScheme... Becke
Basis function cutoff            BFCut       ... 1.0000e-10
Integration weight cutoff        WCut        ... 1.0000e-14
Angular grids for H and He will be reduced by one unit
Partially contracted basis set               ... off
Rotationally invariant grid construction     ... off

Total number of grid points                  ...   154695
Total number of batches                      ...     2431
Average number of points per batch           ...       63
Average number of grid points per atom       ...     5950
Time for grid setup =    1.087 sec

--------------------
COSX GRID GENERATION
--------------------

GRIDX 1
-------
General Integration Accuracy     IntAcc      ... 3.816
Radial Grid Type                 RadialGrid  ... OptM3 with GC (2021)
Angular Grid (max. ang.)         AngularGrid ... 1 (Lebedev-50)
Angular grid pruning method      GridPruning ... 4 (adaptive)
Weight generation scheme         WeightScheme... Becke
Basis function cutoff            BFCut       ... 1.0000e-10
Integration weight cutoff        WCut        ... 1.0000e-14
Angular grids for H and He will be reduced by one unit
Partially contracted basis set               ... on
Rotationally invariant grid construction     ... off

Total number of grid points                  ...    19541
Total number of batches                      ...      317
Average number of points per batch           ...       61
Average number of grid points per atom       ...      752
UseSFitting                                  ... on

GRIDX 2
-------
General Integration Accuracy     IntAcc      ... 4.020
Radial Grid Type                 RadialGrid  ... OptM3 with GC (2021)
Angular Grid (max. ang.)         AngularGrid ... 2 (Lebedev-110)
Angular grid pruning method      GridPruning ... 4 (adaptive)
Weight generation scheme         WeightScheme... Becke
Basis function cutoff            BFCut       ... 1.0000e-10
Integration weight cutoff        WCut        ... 1.0000e-14
Angular grids for H and He will be reduced by one unit
Partially contracted basis set               ... on
Rotationally invariant grid construction     ... off

Total number of grid points                  ...    49796
Total number of batches                      ...      793
Average number of points per batch           ...       62
Average number of grid points per atom       ...     1915
UseSFitting                                  ... on

GRIDX 3
-------
General Integration Accuracy     IntAcc      ... 4.338
Radial Grid Type                 RadialGrid  ... OptM3 with GC (2021)
Angular Grid (max. ang.)         AngularGrid ... 3 (Lebedev-194)
Angular grid pruning method      GridPruning ... 4 (adaptive)
Weight generation scheme         WeightScheme... Becke
Basis function cutoff            BFCut       ... 1.0000e-10
Integration weight cutoff        WCut        ... 1.0000e-14
Angular grids for H and He will be reduced by one unit
Partially contracted basis set               ... on
Rotationally invariant grid construction     ... off

Total number of grid points                  ...   107812
Total number of batches                      ...     1699
Average number of points per batch           ...       63
Average number of grid points per atom       ...     4147
UseSFitting                                  ... on

Time for X-Grid setup             =    1.601 sec

--------------
SCF ITERATIONS
--------------
ITER       Energy         Delta-E        Max-DP      RMS-DP      [F,P]     Damp
               ***  Starting incremental Fock matrix formation  ***
  0   -914.5494861259   0.000000000000249.94486184  1.54423302  0.1389379 0.7000
  1   -914.6841171292  -0.1346310033457313512.52446452 53728.71251623  0.0751711 0.7000
                               ***Turning on DIIS***
  2   -913.9282805100   0.75583661928117309741.82058191 123253.85221107  0.0263759 0.0000
  3   -911.7874198017   2.140860708284291445.15473192 3024.76769512  0.0841834 0.0000
  4   -911.8465477191  -0.0591279174531624040.54910200 18550.11916521  0.0460995 0.0000
  5   -911.8624238405  -0.0158761213515083723.71166974 43545.60933146  0.0345481 0.0000
  6   -911.7242182206   0.1382056198814510907.99341950 43576.00610632  0.0209511 0.0000
  7   -911.5202679102   0.2039503104314293256.08240878 65432.66616442  0.0080666 0.0000
  8   -909.4551808939   2.065087016292361286.95705259 4310.60240145  0.0772331 0.0000
  9   -909.4302956210   0.024885272886269263.49832704 3343.83455046  0.0756127 0.0000
 10   -909.4229180287   0.007377592304981398.84330586 11750.02107779  0.0752783 0.0000
 11   -909.4095657157   0.013352312954705124.42782510 10526.19199743  0.0748200 0.0000
 12   -909.4877617746  -0.0781960589023329405.87939889 35636.78607964  0.0777592 0.0000
 13   -909.5350415232  -0.0472797486073024215.21879100 29138.45042806  0.0831720 0.0000
 14   -909.6452448718  -0.1102033485492047036.48272603 26426.59763656  0.0258104 0.0000
 15   -909.7134240397  -0.068179167929713461.04272904 10257.77683461  0.0112978 0.0000
 16   -909.7197952844  -0.0063712446292536458.61479570 21750.34915504  0.0039359 0.0000
 17   -909.6506736318   0.069121652527870045.55089629 7551.62036935  0.0037456 0.0000
 18   -909.6226052837   0.028068348121605596.90566985 7357.00848875  0.0015561 0.0000
 19   -909.5965959458   0.026009337944675897.00208125 8520.20919052  0.0018559 0.0000
               *** Restarting incremental Fock matrix formation ***
                                   *** Resetting DIIS ***
 20   -909.9152946707  -0.31869872498727095732.18971012 181905.20764106  0.0027476 0.0000
 21   -913.3402746165  -3.4249799457642089627.55857180 14463.39423988  0.0900001 0.0000

 WARNING: the maximum gradient error descreased on average only by a factor   1.0
          during the last 20 iterations

                      *** Initiating the TRAH-SCF procedure ***


TRAH GRIDX
----------

General Integration Accuracy     IntAcc      ... 3.067
Radial Grid Type                 RadialGrid  ... OptM3 with GC (2021)
Angular Grid (max. ang.)         AngularGrid ... 1 (Lebedev-50)
Angular grid pruning method      GridPruning ... 4 (adaptive)
Weight generation scheme         WeightScheme... Becke
Basis function cutoff            BFCut       ... 1.0000e-10
Integration weight cutoff        WCut        ... 1.0000e-14
Angular grids for H and He will be reduced by one unit
Partially contracted basis set               ... on
Rotationally invariant grid construction     ... off

Total number of grid points                  ...    10703
Total number of batches                      ...      180
Average number of points per batch           ...       59
Average number of grid points per atom       ...      412


TRAH GRID
---------

General Integration Accuracy     IntAcc      ... 3.467
Radial Grid Type                 RadialGrid  ... OptM3 with GC (2021)
Angular Grid (max. ang.)         AngularGrid ... 1 (Lebedev-50)
Angular grid pruning method      GridPruning ... 4 (adaptive)
Weight generation scheme         WeightScheme... Becke
Basis function cutoff            BFCut       ... 1.0000e-10
Integration weight cutoff        WCut        ... 1.0000e-14
Angular grids for H and He will be reduced by one unit
Partially contracted basis set               ... off
Rotationally invariant grid construction     ... off

Total number of grid points                  ...    24430
Total number of batches                      ...      398
Average number of points per batch           ...       61
Average number of grid points per atom       ...      940

 --------------------------------------------------------------------------------------------
   Iter.        energy            ||Error||_2        Shift      TRadius  Mac/Mic        Rej.
 --------------------------------------------------------------------------------------------
WARNING: 77 diagonal Hessian elements are negative!
    0       -913.388899584011     1.790727e+00                     0.400 (TRAH MAcro)   No
WARNING : negative HOMO - LUMO gap : -0.453808
    0     dE    -2.295466e-01     2.136382e+00    -4.3366e-01      0.242 (TRAH MIcro)
    0     dE    -4.200148e-01     5.622652e-01    -1.8259e+00      0.400 (TRAH MIcro)
    0     dE    -4.196580e-01     2.187658e-01    -2.0733e+00      0.385 (TRAH MIcro)
    0     dE    -4.160856e-01     4.665823e-02    -2.0787e+00      0.380 (TRAH MIcro)
    0     dE    -4.142199e-01     1.228078e-02    -2.0793e+00      0.377 (TRAH MIcro)
    0     dE    -4.142299e-01     1.255955e-02    -2.0793e+00      0.377 (TRAH MIcro)
    0     dE    -4.142414e-01     1.274492e-02    -2.0793e+00      0.377 (TRAH MIcro)
    0     dE    -4.146974e-01     3.039079e-02    -2.0794e+00      0.378 (TRAH MIcro)
    0     dE    -4.153254e-01     4.627818e-02    -2.0798e+00      0.378 (TRAH MIcro)
    0     dE    -4.154737e-01     4.419776e-02    -2.0799e+00      0.379 (TRAH MIcro)
    0     dE    -4.154772e-01     4.391978e-02    -2.0799e+00      0.379 (TRAH MIcro)
    0     dE    -4.155697e-01     4.374643e-02    -2.0799e+00      0.379 (TRAH MIcro)
    0     dE    -4.157332e-01     4.684869e-02    -2.0799e+00      0.379 (TRAH MIcro)
    0     dE    -4.157331e-01     4.655155e-02    -2.0799e+00      0.379 (TRAH MIcro)
WARNING: 48 diagonal Hessian elements are negative!
    1       -913.798185512335     7.009467e-01                     0.480 (TRAH MAcro)   No
WARNING : negative HOMO - LUMO gap : -0.389329
    1     dE    -8.883644e-02     1.303495e+00    -1.6802e-01      0.240 (TRAH MIcro)
    1     dE    -2.202069e-01     5.873236e-01    -9.5544e-01      0.452 (TRAH MIcro)
    1     dE    -2.640418e-01     3.427315e-01    -1.1991e+00      0.480 (TRAH MIcro)
    1     dE    -2.750815e-01     2.090381e-01    -1.3669e+00      0.480 (TRAH MIcro)
    1     dE    -2.126190e-01     1.353467e-01    -1.6547e+00      0.377 (TRAH MIcro)
    1     dE    -2.202861e-01     6.612833e-02    -1.6618e+00      0.388 (TRAH MIcro)
    1     dE    -2.373954e-01     1.086377e-01    -1.6667e+00      0.412 (TRAH MIcro)
    1     dE    -2.844543e-01     5.578023e-02    -1.6711e+00      0.475 (TRAH MIcro)
    1     dE    -2.886539e-01     3.453041e-02    -1.6767e+00      0.480 (TRAH MIcro)
    1     dE    -2.887828e-01     3.266807e-02    -1.6795e+00      0.480 (TRAH MIcro)
    1     dE    -2.888318e-01     3.686433e-02    -1.6799e+00      0.480 (TRAH MIcro)
    1     dE    -2.889236e-01     5.296621e-02    -1.6802e+00      0.480 (TRAH MIcro)
    1     dE    -2.889406e-01     5.391200e-02    -1.6802e+00      0.480 (TRAH MIcro)
    1     dE    -2.889613e-01     5.417787e-02    -1.6803e+00      0.480 (TRAH MIcro)
WARNING: 15 diagonal Hessian elements are negative!
    2       -914.122053349869     5.884040e-01                     0.576 (TRAH MAcro)   No
WARNING : negative HOMO - LUMO gap : -0.241854
    2     dE    -2.545027e-01     2.628363e+00    -5.1383e-01      0.576 (TRAH MIcro)
    2     dE    -4.156891e-01     6.140624e-01    -1.5955e+00      0.576 (TRAH MIcro)
    2     dE    -4.290195e-01     1.444136e-01    -1.6970e+00      0.576 (TRAH MIcro)
    2     dE    -4.306837e-01     5.871760e-02    -1.7109e+00      0.576 (TRAH MIcro)
    2     dE    -4.308287e-01     4.394773e-02    -1.7119e+00      0.576 (TRAH MIcro)
    2     dE    -4.308640e-01     4.281774e-02    -1.7118e+00      0.576 (TRAH MIcro)
    2     dE    -4.308637e-01     4.323129e-02    -1.7118e+00      0.576 (TRAH MIcro)
    2     dE    -4.308635e-01     4.307805e-02    -1.7118e+00      0.576 (TRAH MIcro)
    2     dE    -4.308744e-01     4.303367e-02    -1.7122e+00      0.576 (TRAH MIcro)
    2     dE    -4.308770e-01     4.163562e-02    -1.7123e+00      0.576 (TRAH MIcro)
    2     dE    -4.310406e-01     6.043523e-02    -1.7136e+00      0.576 (TRAH MIcro)
    2     dE    -4.310591e-01     6.267932e-02    -1.7136e+00      0.576 (TRAH MIcro)
    2     dE    -4.310598e-01     6.289073e-02    -1.7137e+00      0.576 (TRAH MIcro)
    2     dE    -4.310704e-01     6.622528e-02    -1.7140e+00      0.576 (TRAH MIcro)
    3       -914.588518632609     6.056332e-01                     0.691 (TRAH MAcro)   No
WARNING : small    HOMO - LUMO gap : 0.015373
    3     dE    -1.845694e-01     1.825843e+00    -2.9741e-01      0.491 (TRAH MIcro)
    3     dE    -2.992527e-01     7.950296e-01    -4.1847e-01      0.691 (TRAH MIcro)
    3     dE    -3.107523e-01     1.647749e-01    -4.7452e-01      0.691 (TRAH MIcro)
    3     dE    -3.119137e-01     6.102914e-02    -4.7940e-01      0.691 (TRAH MIcro)
    3     dE    -3.121262e-01     3.242120e-02    -4.7947e-01      0.691 (TRAH MIcro)
    3     dE    -3.121288e-01     2.689573e-02    -4.7930e-01      0.691 (TRAH MIcro)
    3     dE    -3.121345e-01     3.410019e-02    -4.7954e-01      0.691 (TRAH MIcro)
    3     dE    -3.121348e-01     3.407177e-02    -4.7954e-01      0.691 (TRAH MIcro)
    3     dE    -3.121421e-01     3.629927e-02    -4.7962e-01      0.691 (TRAH MIcro)
    3     dE    -3.121675e-01     4.227309e-02    -4.7984e-01      0.691 (TRAH MIcro)
    3     dE    -3.121876e-01     4.727777e-02    -4.8011e-01      0.691 (TRAH MIcro)
    3     dE    -3.121892e-01     4.711899e-02    -4.8015e-01      0.691 (TRAH MIcro)
    3     dE    -3.121973e-01     4.582517e-02    -4.8026e-01      0.691 (TRAH MIcro)
    3     dE    -3.122021e-01     4.808182e-02    -4.8029e-01      0.691 (TRAH MIcro)
    4       -914.874561781490     1.891639e-01                     0.829 (TRAH MAcro)   No
    4     dE    -1.481747e-03     3.264848e-01    -2.9628e-03      0.016 (TRAH MIcro)
    4     dE    -2.668315e-03     3.777501e-02    -5.3303e-03      0.034 (TRAH MIcro)
    4     dE    -2.799687e-03     2.261508e-02    -5.5917e-03      0.037 (TRAH MIcro)
    4     dE    -2.828219e-03     9.990759e-03    -5.6479e-03      0.039 (TRAH MIcro)
    5       -914.877422025280     1.012745e-02                     0.995 (TRAH MAcro)   No
    5     dE    -8.201468e-07     1.026044e-02    -1.6403e-06      0.000 (TRAH MIcro)
    5     dE    -4.972206e-06     3.066797e-03    -9.9444e-06      0.002 (TRAH MIcro)
    5     dE    -6.076503e-06     1.769813e-03    -1.2153e-05      0.002 (TRAH MIcro)
    5     dE    -6.367221e-06     7.375002e-04    -1.2734e-05      0.003 (TRAH MIcro)
    6       -914.877427862105     8.241453e-04                           (NR   MAcro)
    6     dE    -4.811608e-08     3.797326e-04                           (NR   MIcro)
    6     dE    -6.248555e-08     1.926693e-04                           (NR   MIcro)
    6     dE    -6.570036e-08     1.047006e-04                           (NR   MIcro)
    6     dE    -6.660790e-08     2.794473e-05                           (NR   MIcro)
    6     dE    -6.665553e-08     1.311280e-05                           (NR   MIcro)
    6     dE    -6.666742e-08     3.964567e-06                           (NR   MIcro)
    7       -914.877427684853     1.368830e-04                           (NR   MAcro)
    7     dE    -2.543438e-09     2.551066e-05                           (NR   MIcro)
    7     dE    -2.570946e-09     1.569122e-05                           (NR   MIcro)
    7     dE    -2.583799e-09     4.467691e-06                           (NR   MIcro)
    8       -914.877427715907     6.075144e-05                           (NR   MAcro)
    8     dE    -5.167889e-10     1.052327e-05                           (NR   MIcro)
    8     dE    -5.200202e-10     6.070382e-06                           (NR   MIcro)
    8     dE    -5.211875e-10     2.464090e-06                           (NR   MIcro)
    9       -914.877427672007     2.705121e-05                           (NR   MAcro)

               *****************************************************
               *                     SUCCESS                       *
               *           SCF CONVERGED AFTER 108 CYCLES          *
               *****************************************************

Old exchange energy                            =    -24.976098707 Eh
New exchange energy                            =    -24.976115123 Eh
Exchange energy change after final integration =     -0.000016416 Eh
Total energy after final integration           =   -914.877444088 Eh
Final COS-X integration done in                =    20.710 sec

----------------
TOTAL SCF ENERGY
----------------

Total Energy       :         -914.87744409 Eh          -24895.08090 eV

Components:
Nuclear Repulsion  :         1652.20151565 Eh           44958.68890 eV
Electronic Energy  :        -2567.07895973 Eh          -69853.76979 eV
One Electron Energy:        -4514.79170410 Eh         -122853.72803 eV
Two Electron Energy:         1947.71274437 Eh           52999.95824 eV
Max COSX asymmetry :            0.00082129 Eh               0.02235 eV

Warning: maximum COSX asymmetry larger than 0.0005 Eh!
Please consider increasing the grid.

Virial components:
Potential Energy   :        -1826.55034472 Eh          -49702.96173 eV
Kinetic Energy     :          911.67290063 Eh           24807.88083 eV
Virial Ratio       :            2.00351501


DFT components:
N(Alpha)           :       73.000145270724 electrons
N(Beta)            :       73.000145270724 electrons
N(Total)           :      146.000290541448 electrons
E(X)               :      -99.445897118750 Eh       
E(C)               :       -5.932984901305 Eh       
E(XC)              :     -105.378882020055 Eh       
DFET-embed. en.    :        0.000000000000 Eh       

---------------
SCF CONVERGENCE
---------------

  Last Energy change         ...    4.3900e-08  Tolerance :   1.0000e-06
  Last Orbital Gradient      ...    2.7051e-05  Tolerance :   5.0000e-05
  Last Orbital Rotation      ...    1.9323e-05

             **** THE GBW FILE WAS UPDATED (loss_eight_seven_eleven_twelve_three_four_two_one_five_six_spectra.gbw) ****
             **** DENSITY loss_eight_seven_eleven_twelve_three_four_two_one_five_six_spectra.scfp WAS UPDATED ****
             **** ENERGY FILE WAS UPDATED (loss_eight_seven_eleven_twelve_three_four_two_one_five_six_spectra.en.tmp) ****
             **** THE GBW FILE WAS UPDATED (loss_eight_seven_eleven_twelve_three_four_two_one_five_six_spectra.gbw) ****
             **** DENSITY loss_eight_seven_eleven_twelve_three_four_two_one_five_six_spectra.scfp WAS UPDATED ****
----------------
ORBITAL ENERGIES
----------------

  NO   OCC          E(Eh)            E(eV) 
   0   2.0000     -10.259936      -279.1871 
   1   2.0000     -10.259923      -279.1867 
   2   2.0000     -10.259899      -279.1860 
   3   2.0000     -10.259879      -279.1855 
   4   2.0000     -10.240526      -278.6589 
   5   2.0000     -10.240169      -278.6492 
   6   2.0000     -10.240150      -278.6487 
   7   2.0000     -10.240147      -278.6486 
   8   2.0000     -10.237728      -278.5827 
   9   2.0000     -10.237721      -278.5826 
  10   2.0000     -10.233672      -278.4724 
  11   2.0000     -10.233243      -278.4607 
  12   2.0000     -10.210302      -277.8365 
  13   2.0000     -10.210134      -277.8319 
  14   2.0000     -10.210092      -277.8307 
  15   2.0000     -10.209763      -277.8218 
  16   2.0000     -10.209641      -277.8185 
  17   2.0000     -10.208293      -277.7818 
  18   2.0000     -10.208202      -277.7793 
  19   2.0000     -10.208181      -277.7787 
  20   2.0000     -10.208138      -277.7776 
  21   2.0000     -10.207798      -277.7683 
  22   2.0000     -10.204119      -277.6682 
  23   2.0000     -10.204068      -277.6668 
  24   2.0000      -0.946227       -25.7481 
  25   2.0000      -0.914365       -24.8811 
  26   2.0000      -0.913050       -24.8454 
  27   2.0000      -0.869095       -23.6493 
  28   2.0000      -0.867303       -23.6005 
  29   2.0000      -0.840395       -22.8683 
  30   2.0000      -0.824628       -22.4393 
  31   2.0000      -0.798912       -21.7395 
  32   2.0000      -0.773605       -21.0509 
  33   2.0000      -0.765915       -20.8416 
  34   2.0000      -0.753534       -20.5047 
  35   2.0000      -0.751633       -20.4530 
  36   2.0000      -0.676248       -18.4016 
  37   2.0000      -0.669977       -18.2310 
  38   2.0000      -0.654597       -17.8125 
  39   2.0000      -0.647477       -17.6187 
  40   2.0000      -0.642949       -17.4955 
  41   2.0000      -0.585109       -15.9216 
  42   2.0000      -0.561626       -15.2826 
  43   2.0000      -0.558241       -15.1905 
  44   2.0000      -0.549253       -14.9459 
  45   2.0000      -0.543646       -14.7934 
  46   2.0000      -0.531285       -14.4570 
  47   2.0000      -0.513019       -13.9600 
  48   2.0000      -0.502328       -13.6690 
  49   2.0000      -0.488818       -13.3014 
  50   2.0000      -0.482325       -13.1247 
  51   2.0000      -0.465681       -12.6718 
  52   2.0000      -0.452906       -12.3242 
  53   2.0000      -0.452692       -12.3184 
  54   2.0000      -0.434165       -11.8142 
  55   2.0000      -0.430144       -11.7048 
  56   2.0000      -0.428215       -11.6523 
  57   2.0000      -0.407520       -11.0892 
  58   2.0000      -0.395977       -10.7751 
  59   2.0000      -0.378915       -10.3108 
  60   2.0000      -0.376332       -10.2405 
  61   2.0000      -0.357865        -9.7380 
  62   2.0000      -0.319848        -8.7035 
  63   2.0000      -0.307834        -8.3766 
  64   2.0000      -0.306580        -8.3425 
  65   2.0000      -0.305904        -8.3241 
  66   2.0000      -0.303803        -8.2669 
  67   2.0000      -0.298756        -8.1296 
  68   2.0000      -0.296767        -8.0754 
  69   2.0000      -0.289508        -7.8779 
  70   2.0000      -0.287885        -7.8338 
  71   2.0000      -0.244932        -6.6649 
  72   2.0000      -0.242998        -6.6123 
  73   0.0000      -0.115902        -3.1539 
  74   0.0000      -0.115321        -3.1380 
  75   0.0000      -0.104160        -2.8343 
  76   0.0000      -0.095847        -2.6081 
  77   0.0000      -0.094934        -2.5833 
  78   0.0000      -0.092715        -2.5229 
  79   0.0000      -0.087501        -2.3810 
  80   0.0000      -0.048011        -1.3064 
  81   0.0000      -0.043232        -1.1764 
  82   0.0000      -0.037433        -1.0186 
  83   0.0000      -0.000000        -0.0000 
  84   0.0000      -0.000000        -0.0000 
  85   0.0000      -0.000000        -0.0000 
  86   0.0000       0.000000         0.0000 
  87   0.0000       0.001456         0.0396 
  88   0.0000       0.013518         0.3678 
  89   0.0000       0.016864         0.4589 
  90   0.0000       0.024141         0.6569 
  91   0.0000       0.031475         0.8565 
  92   0.0000       0.033468         0.9107 
  93   0.0000       0.038647         1.0516 
  94   0.0000       0.039395         1.0720 
  95   0.0000       0.040307         1.0968 
  96   0.0000       0.045079         1.2267 
  97   0.0000       0.047914         1.3038 
  98   0.0000       0.052898         1.4394 
  99   0.0000       0.053029         1.4430 
 100   0.0000       0.056588         1.5398 
 101   0.0000       0.060490         1.6460 
 102   0.0000       0.062918         1.7121 
 103   0.0000       0.073298         1.9946 
 104   0.0000       0.074315         2.0222 
 105   0.0000       0.074835         2.0364 
 106   0.0000       0.085175         2.3177 
 107   0.0000       0.088263         2.4018 
 108   0.0000       0.091706         2.4954 
 109   0.0000       0.095684         2.6037 
 110   0.0000       0.098008         2.6669 
 111   0.0000       0.102600         2.7919 
 112   0.0000       0.105151         2.8613 
 113   0.0000       0.113581         3.0907 
 114   0.0000       0.114898         3.1265 
 115   0.0000       0.118716         3.2304 
 116   0.0000       0.118817         3.2332 
 117   0.0000       0.129763         3.5310 
 118   0.0000       0.132449         3.6041 
 119   0.0000       0.133605         3.6356 
 120   0.0000       0.135752         3.6940 
 121   0.0000       0.140251         3.8164 
 122   0.0000       0.140428         3.8212 
 123   0.0000       0.144277         3.9260 
 124   0.0000       0.145653         3.9634 
 125   0.0000       0.147177         4.0049 
 126   0.0000       0.155072         4.2197 
 127   0.0000       0.157914         4.2971 
 128   0.0000       0.162635         4.4255 
 129   0.0000       0.174711         4.7541 
 130   0.0000       0.176990         4.8161 
 131   0.0000       0.177318         4.8251 
 132   0.0000       0.178579         4.8594 
 133   0.0000       0.179411         4.8820 
 134   0.0000       0.183344         4.9890 
 135   0.0000       0.184320         5.0156 
 136   0.0000       0.192225         5.2307 
 137   0.0000       0.193996         5.2789 
 138   0.0000       0.197554         5.3757 
 139   0.0000       0.198154         5.3920 
 140   0.0000       0.201655         5.4873 
 141   0.0000       0.201809         5.4915 
 142   0.0000       0.205161         5.5827 
 143   0.0000       0.208865         5.6835 
 144   0.0000       0.209680         5.7057 
 145   0.0000       0.214081         5.8254 
 146   0.0000       0.219085         5.9616 
 147   0.0000       0.221669         6.0319 
 148   0.0000       0.224045         6.0966 
 149   0.0000       0.227694         6.1959 
 150   0.0000       0.229901         6.2559 
 151   0.0000       0.232005         6.3132 
 152   0.0000       0.233815         6.3624 
 153   0.0000       0.239462         6.5161 
 154   0.0000       0.239724         6.5232 
 155   0.0000       0.242220         6.5911 
 156   0.0000       0.244594         6.6557 
 157   0.0000       0.248971         6.7749 
 158   0.0000       0.249511         6.7895 
 159   0.0000       0.255295         6.9469 
 160   0.0000       0.255658         6.9568 
 161   0.0000       0.256740         6.9863 
 162   0.0000       0.260654         7.0928 
 163   0.0000       0.268104         7.2955 
 164   0.0000       0.273879         7.4526 
 165   0.0000       0.274636         7.4732 
 166   0.0000       0.284574         7.7436 
 167   0.0000       0.286317         7.7911 
 168   0.0000       0.292883         7.9697 
 169   0.0000       0.295899         8.0518 
 170   0.0000       0.298289         8.1169 
 171   0.0000       0.301550         8.2056 
 172   0.0000       0.301648         8.2083 
 173   0.0000       0.304865         8.2958 
 174   0.0000       0.310913         8.4604 
 175   0.0000       0.319611         8.6971 
 176   0.0000       0.323918         8.8143 
 177   0.0000       0.330470         8.9925 
 178   0.0000       0.333867         9.0850 
 179   0.0000       0.338354         9.2071 
 180   0.0000       0.346482         9.4283 
 181   0.0000       0.351018         9.5517 
 182   0.0000       0.362303         9.8588 
 183   0.0000       0.363344         9.8871 
 184   0.0000       0.367549        10.0015 
 185   0.0000       0.370216        10.0741 
 186   0.0000       0.373906        10.1745 
 187   0.0000       0.380108        10.3433 
 188   0.0000       0.382328        10.4037 
 189   0.0000       0.393841        10.7169 
 190   0.0000       0.401374        10.9220 
 191   0.0000       0.410902        11.1812 
 192   0.0000       0.417397        11.3579 
 193   0.0000       0.418857        11.3977 
 194   0.0000       0.428215        11.6523 
 195   0.0000       0.434255        11.8167 
 196   0.0000       0.438077        11.9207 
 197   0.0000       0.442187        12.0325 
 198   0.0000       0.455742        12.4014 
 199   0.0000       0.464592        12.6422 
 200   0.0000       0.477789        13.0013 
 201   0.0000       0.484569        13.1858 
 202   0.0000       0.496012        13.4972 
 203   0.0000       0.498710        13.5706 
 204   0.0000       0.501692        13.6517 
 205   0.0000       0.504251        13.7214 
 206   0.0000       0.513082        13.9617 
 207   0.0000       0.514275        13.9941 
 208   0.0000       0.514704        14.0058 
 209   0.0000       0.520565        14.1653 
 210   0.0000       0.532483        14.4896 
 211   0.0000       0.539228        14.6731 
 212   0.0000       0.539764        14.6877 
 213   0.0000       0.540779        14.7153 
 214   0.0000       0.546975        14.8840 
 215   0.0000       0.553296        15.0560 
 216   0.0000       0.554608        15.0916 
 217   0.0000       0.558085        15.1863 
 218   0.0000       0.565038        15.3755 
 219   0.0000       0.580802        15.8044 
 220   0.0000       0.585771        15.9396 
 221   0.0000       0.588736        16.0203 
 222   0.0000       0.592854        16.1324 
 223   0.0000       0.594950        16.1894 
 224   0.0000       0.597891        16.2695 
 225   0.0000       0.599396        16.3104 
 226   0.0000       0.600283        16.3345 
 227   0.0000       0.609917        16.5967 
 228   0.0000       0.611527        16.6405 
 229   0.0000       0.611584        16.6421 
 230   0.0000       0.613076        16.6826 
 231   0.0000       0.615814        16.7572 
 232   0.0000       0.622269        16.9328 
 233   0.0000       0.622895        16.9498 
 234   0.0000       0.623606        16.9692 
 235   0.0000       0.627415        17.0728 
 236   0.0000       0.636363        17.3163 
 237   0.0000       0.639069        17.3899 
 238   0.0000       0.641329        17.4514 
 239   0.0000       0.650970        17.7138 
 240   0.0000       0.655488        17.8367 
 241   0.0000       0.659437        17.9442 
 242   0.0000       0.661930        18.0120 
 243   0.0000       0.662432        18.0257 
 244   0.0000       0.667119        18.1532 
 245   0.0000       0.671614        18.2755 
 246   0.0000       0.673500        18.3269 
 247   0.0000       0.674390        18.3511 
 248   0.0000       0.688129        18.7249 
 249   0.0000       0.692905        18.8549 
 250   0.0000       0.709086        19.2952 
 251   0.0000       0.713112        19.4048 
 252   0.0000       0.715850        19.4793 
 253   0.0000       0.718915        19.5627 
 254   0.0000       0.723286        19.6816 
 255   0.0000       0.725537        19.7429 
 256   0.0000       0.726209        19.7611 
 257   0.0000       0.735958        20.0264 
 258   0.0000       0.737205        20.0604 
 259   0.0000       0.745932        20.2979 
 260   0.0000       0.749280        20.3889 
 261   0.0000       0.759325        20.6623 
 262   0.0000       0.759749        20.6738 
 263   0.0000       0.772892        21.0315 
 264   0.0000       0.774897        21.0860 
 265   0.0000       0.776051        21.1174 
 266   0.0000       0.780313        21.2334 
 267   0.0000       0.788551        21.4576 
 268   0.0000       0.805807        21.9271 
 269   0.0000       0.810302        22.0495 
 270   0.0000       0.823727        22.4147 
 271   0.0000       0.860829        23.4244 
 272   0.0000       0.863241        23.4900 
 273   0.0000       0.900756        24.5108 
 274   0.0000       0.903489        24.5852 
 275   0.0000       0.905083        24.6286 
 276   0.0000       0.915999        24.9256 
 277   0.0000       0.916904        24.9502 
 278   0.0000       0.926111        25.2008 
 279   0.0000       0.930593        25.3227 
 280   0.0000       0.941806        25.6278 
 281   0.0000       0.946019        25.7425 
 282   0.0000       0.957032        26.0422 
 283   0.0000       0.965174        26.2637 
 284   0.0000       0.967068        26.3153 
 285   0.0000       0.970857        26.4184 
 286   0.0000       0.976299        26.5664 
 287   0.0000       0.976578        26.5740 
 288   0.0000       0.977325        26.5944 
 289   0.0000       0.982665        26.7397 
 290   0.0000       0.988643        26.9024 
 291   0.0000       0.991413        26.9777 
 292   0.0000       0.994392        27.0588 
 293   0.0000       1.001874        27.2624 
 294   0.0000       1.014216        27.5982 
 295   0.0000       1.017674        27.6923 
 296   0.0000       1.020169        27.7602 
 297   0.0000       1.020641        27.7730 
 298   0.0000       1.039051        28.2740 
 299   0.0000       1.044914        28.4335 
 300   0.0000       1.045535        28.4505 
 301   0.0000       1.049477        28.5577 
 302   0.0000       1.060405        28.8551 
 303   0.0000       1.081884        29.4396 
 304   0.0000       1.104769        30.0623 
 305   0.0000       1.123776        30.5795 
 306   0.0000       1.124986        30.6124 
 307   0.0000       1.125326        30.6217 
 308   0.0000       1.125680        30.6313 
 309   0.0000       1.128066        30.6962 
 310   0.0000       1.134995        30.8848 
 311   0.0000       1.147376        31.2217 
 312   0.0000       1.159017        31.5385 
 313   0.0000       1.159617        31.5548 
 314   0.0000       1.168260        31.7900 
 315   0.0000       1.176125        32.0040 
 316   0.0000       1.196847        32.5679 
 317   0.0000       1.201119        32.6841 
 318   0.0000       1.206558        32.8321 
 319   0.0000       1.220813        33.2200 
 320   0.0000       1.235561        33.6213 
 321   0.0000       1.237706        33.6797 
 322   0.0000       1.238628        33.7048 
 323   0.0000       1.238650        33.7054 
 324   0.0000       1.243222        33.8298 
 325   0.0000       1.253880        34.1198 
 326   0.0000       1.277894        34.7733 
 327   0.0000       1.280459        34.8430 
 328   0.0000       1.299389        35.3582 
 329   0.0000       1.310065        35.6487 
 330   0.0000       1.344413        36.5833 
 331   0.0000       1.382298        37.6142 
 332   0.0000       1.386189        37.7201 
 333   0.0000       1.417245        38.5652 
 334   0.0000       1.423480        38.7349 
 335   0.0000       1.444593        39.3094 
 336   0.0000       1.449400        39.4402 
 337   0.0000       1.461115        39.7590 
 338   0.0000       1.461693        39.7747 
 339   0.0000       1.462349        39.7925 
 340   0.0000       1.469779        39.9947 
 341   0.0000       1.470290        40.0086 
 342   0.0000       1.486250        40.4429 
 343   0.0000       1.495052        40.6824 
 344   0.0000       1.503587        40.9147 
 345   0.0000       1.506188        40.9855 
 346   0.0000       1.512948        41.1694 
 347   0.0000       1.538728        41.8709 
 348   0.0000       1.541983        41.9595 
 349   0.0000       1.562565        42.5196 
 350   0.0000       1.562989        42.5311 
 351   0.0000       1.567360        42.6500 
 352   0.0000       1.597087        43.4590 
 353   0.0000       1.597541        43.4713 
 354   0.0000       1.619395        44.0660 
 355   0.0000       1.636564        44.5332 
 356   0.0000       1.658096        45.1191 
 357   0.0000       1.666058        45.3357 
 358   0.0000       1.679703        45.7070 
 359   0.0000       1.692498        46.0552 
 360   0.0000       1.707382        46.4602 
 361   0.0000       1.710869        46.5551 
 362   0.0000       1.731033        47.1038 
 363   0.0000       1.732532        47.1446 
 364   0.0000       1.740940        47.3734 
 365   0.0000       1.758253        47.8445 
 366   0.0000       1.770320        48.1728 
 367   0.0000       1.773985        48.2726 
 368   0.0000       1.801518        49.0218 
 369   0.0000       1.828603        49.7588 
 370   0.0000       1.831778        49.8452 
 371   0.0000       1.843037        50.1516 
 372   0.0000       1.846998        50.2594 
 373   0.0000       1.855044        50.4783 
 374   0.0000       1.856057        50.5059 
 375   0.0000       1.869782        50.8794 
 376   0.0000       1.883943        51.2647 
 377   0.0000       1.890150        51.4336 
 378   0.0000       1.902209        51.7617 
 379   0.0000       1.913191        52.0606 
 380   0.0000       1.939986        52.7897 
 381   0.0000       1.945368        52.9362 
 382   0.0000       1.971373        53.6438 
 383   0.0000       1.977003        53.7970 
 384   0.0000       1.978322        53.8329 
 385   0.0000       1.982710        53.9523 
 386   0.0000       1.994503        54.2732 
 387   0.0000       2.015438        54.8429 
 388   0.0000       2.017496        54.8989 
 389   0.0000       2.022506        55.0352 
 390   0.0000       2.030027        55.2398 
 391   0.0000       2.032877        55.3174 
 392   0.0000       2.035643        55.3927 
 393   0.0000       2.042592        55.5818 
 394   0.0000       2.045658        55.6652 
 395   0.0000       2.045916        55.6722 
 396   0.0000       2.046786        55.6959 
 397   0.0000       2.058476        56.0140 
 398   0.0000       2.073896        56.4336 
 399   0.0000       2.104855        57.2760 
 400   0.0000       2.147012        58.4232 
 401   0.0000       2.149070        58.4792 
 402   0.0000       2.178727        59.2862 
 403   0.0000       2.207716        60.0750 
 404   0.0000       2.227126        60.6032 
 405   0.0000       2.235740        60.8376 
 406   0.0000       2.241466        60.9934 
 407   0.0000       2.288846        62.2827 
 408   0.0000       2.299616        62.5757 
 409   0.0000       2.303807        62.6898 
 410   0.0000       2.328837        63.3709 
 411   0.0000       2.330356        63.4122 
 412   0.0000       2.348563        63.9077 
 413   0.0000       2.350658        63.9647 
 414   0.0000       2.352587        64.0171 
 415   0.0000       2.367747        64.4297 
 416   0.0000       2.368642        64.4540 
 417   0.0000       2.391375        65.0726 
 418   0.0000       2.413193        65.6663 
 419   0.0000       2.465170        67.0807 
 420   0.0000       2.480440        67.4962 
 421   0.0000       2.483160        67.5702 
 422   0.0000       2.493510        67.8518 
 423   0.0000       2.524628        68.6986 
 424   0.0000       2.530524        68.8590 
 425   0.0000       2.562569        69.7311 
 426   0.0000       2.583307        70.2954 
 427   0.0000       2.586110        70.3716 
 428   0.0000       2.597890        70.6922 
 429   0.0000       2.610177        71.0265 
 430   0.0000       2.624634        71.4199 
 431   0.0000       2.627548        71.4992 
 432   0.0000       2.636749        71.7496 
 433   0.0000       2.668980        72.6267 
 434   0.0000       2.681443        72.9658 
 435   0.0000       2.686056        73.0913 
 436   0.0000       2.695936        73.3601 
 437   0.0000       2.698984        73.4431 
 438   0.0000       2.699926        73.4687 
 439   0.0000       2.726604        74.1947 
 440   0.0000       2.746207        74.7281 
 441   0.0000       2.751999        74.8857 
 442   0.0000       2.761425        75.1422 
 443   0.0000       2.800855        76.2151 
 444   0.0000       2.807487        76.3956 
 445   0.0000       2.814664        76.5909 
 446   0.0000       2.819118        76.7121 
 447   0.0000       2.860956        77.8506 
 448   0.0000       2.862912        77.9038 
 449   0.0000       2.865616        77.9774 
 450   0.0000       2.866738        78.0079 
 451   0.0000       2.883145        78.4544 
 452   0.0000       2.884616        78.4944 
 453   0.0000       2.903092        78.9972 
 454   0.0000       2.914175        79.2987 
 455   0.0000       2.918168        79.4074 
 456   0.0000       2.929124        79.7055 
 457   0.0000       2.931604        79.7730 
 458   0.0000       2.958543        80.5060 
 459   0.0000       2.982921        81.1694 
 460   0.0000       2.993472        81.4565 
 461   0.0000       2.995257        81.5051 
 462   0.0000       3.023431        82.2717 
 463   0.0000       3.035443        82.5986 
 464   0.0000       3.038032        82.6691 
 465   0.0000       3.050792        83.0163 
 466   0.0000       3.054193        83.1088 
 467   0.0000       3.054780        83.1248 
 468   0.0000       3.073507        83.6344 
 469   0.0000       3.073886        83.6447 
 470   0.0000       3.117667        84.8360 
 471   0.0000       3.134305        85.2888 
 472   0.0000       3.142287        85.5060 
 473   0.0000       3.169622        86.2498 
 474   0.0000       3.174583        86.3848 
 475   0.0000       3.175258        86.4032 
 476   0.0000       3.248324        88.3914 
 477   0.0000       3.276657        89.1624 
 478   0.0000       3.332585        90.6842 
 479   0.0000       3.341458        90.9257 
 480   0.0000       3.360769        91.4512 
 481   0.0000       3.376275        91.8731 
 482   0.0000       3.382511        92.0428 
 483   0.0000       3.389942        92.2450 
 484   0.0000       3.396763        92.4306 
 485   0.0000       3.398398        92.4751 
 486   0.0000       3.424596        93.1880 
 487   0.0000       3.458537        94.1116 
 488   0.0000       3.460229        94.1576 
 489   0.0000       3.496297        95.1391 
 490   0.0000       3.524093        95.8954 
 491   0.0000       3.534228        96.1712 
 492   0.0000       3.557962        96.8171 
 493   0.0000       3.563967        96.9805 
 494   0.0000       3.597786        97.9007 
 495   0.0000       3.641940        99.1022 
 496   0.0000       3.696677       100.5917 
 497   0.0000       3.716486       101.1307 
 498   0.0000       3.717418       101.1561 
 499   0.0000       3.803516       103.4989 
 500   0.0000       3.825836       104.1063 
 501   0.0000       3.835191       104.3608 
 502   0.0000       3.899067       106.0990 
 503   0.0000       4.039821       109.9291 
 504   0.0000       4.074071       110.8611 
 505   0.0000       4.139958       112.6540 
 506   0.0000       4.181115       113.7739 
 507   0.0000       4.355923       118.5307 
 508   0.0000       4.427823       120.4872 
 509   0.0000       4.711966       128.2191 
 510   0.0000       4.713623       128.2642 
 511   0.0000       4.734219       128.8247 
 512   0.0000       4.741113       129.0122 
 513   0.0000       4.757446       129.4567 
 514   0.0000       4.800164       130.6191 
 515   0.0000       5.010997       136.3562 
 516   0.0000      23.145851       629.8306 
 517   0.0000      23.439749       637.8280 
 518   0.0000      23.489719       639.1877 
 519   0.0000      23.641020       643.3048 
 520   0.0000      23.666487       643.9978 
 521   0.0000      23.687957       644.5821 
 522   0.0000      23.799645       647.6213 
 523   0.0000      23.835942       648.6090 
 524   0.0000      23.860413       649.2748 
 525   0.0000      23.902362       650.4163 
 526   0.0000      23.910452       650.6365 
 527   0.0000      23.965947       652.1466 
 528   0.0000      23.990841       652.8240 
 529   0.0000      24.003597       653.1711 
 530   0.0000      24.027301       653.8161 
 531   0.0000      24.032941       653.9696 
 532   0.0000      24.040022       654.1623 
 533   0.0000      24.045996       654.3248 
 534   0.0000      24.178172       657.9215 
 535   0.0000      24.638413       670.4453 
 536   0.0000      24.641957       670.5417 
 537   0.0000      24.648808       670.7282 
 538   0.0000      24.654366       670.8794 
 539   0.0000      24.664018       671.1420 

                    ********************************
                    * MULLIKEN POPULATION ANALYSIS *
                    ********************************

-----------------------
MULLIKEN ATOMIC CHARGES
-----------------------
   0 C :   -0.033150
   1 C :   -1.045423
   2 C :    1.589645
   3 C :   -0.650513
   4 C :    0.022528
   5 C :    0.626166
   6 C :   -0.675321
   7 C :   -0.338017
   8 C :    1.789336
   9 C :   -0.137692
  10 C :   -0.709907
  11 C :    2.227978
  12 C :   -0.212774
  13 C :   -0.105441
  14 C :    1.195220
  15 C :   -0.237552
  16 C :   -0.452366
  17 C :    1.520381
  18 C :   -0.089838
  19 C :   -1.988085
  20 C :   -1.055174
  21 C :   -0.338055
  22 C :   -1.319639
  23 C :    0.120446
  24 H :    0.149004
  25 H :    0.148243
Sum of atomic charges:    0.0000000

--------------------------------
MULLIKEN REDUCED ORBITAL CHARGES
--------------------------------
  0 C s       :     3.955500  s :     3.955500
      pz      :     0.956273  p :     2.023756
      px      :     0.681130
      py      :     0.386353
      dz2     :     0.003564  d :     0.053894
      dxz     :     0.008969
      dyz     :     0.010743
      dx2y2   :     0.018565
      dxy     :     0.012053
  1 C s       :     4.558310  s :     4.558310
      pz      :     0.951354  p :     2.433230
      px      :     0.828800
      py      :     0.653076
      dz2     :     0.003564  d :     0.053884
      dxz     :     0.014911
      dyz     :     0.004869
      dx2y2   :     0.013695
      dxy     :     0.016845
  2 C s       :     1.814372  s :     1.814372
      pz      :     1.029245  p :     2.508393
      px      :    -0.454816
      py      :     1.933965
      dz2     :     0.004722  d :     0.087590
      dxz     :     0.015169
      dyz     :     0.007901
      dx2y2   :     0.033408
      dxy     :     0.026390
  3 C s       :     4.298031  s :     4.298031
      pz      :     0.955746  p :     2.298649
      px      :     0.665779
      py      :     0.677124
      dz2     :     0.003562  d :     0.053833
      dxz     :     0.015072
      dyz     :     0.004709
      dx2y2   :     0.013370
      dxy     :     0.017119
  4 C s       :     3.646446  s :     3.646446
      pz      :     0.954518  p :     2.277192
      px      :     0.682235
      py      :     0.640439
      dz2     :     0.003559  d :     0.053834
      dxz     :     0.009396
      dyz     :     0.010382
      dx2y2   :     0.018522
      dxy     :     0.011975
  5 C s       :     2.384155  s :     2.384155
      pz      :     1.029367  p :     2.902064
      px      :     1.526189
      py      :     0.346509
      dz2     :     0.004719  d :     0.087614
      dxz     :     0.009770
      dyz     :     0.013279
      dx2y2   :     0.028080
[...]
 762   90493.3    110.5     -0.00885  -0.00012  -0.00011  -0.25307
 763   90528.0    110.5      0.02808  -0.45344   0.25210   0.00059
 764   90539.1    110.4     -0.02326   0.00037  -0.00010   0.12102
 765   90544.8    110.4     -0.00114  -0.13989   0.05132  -0.00013
 766   90609.6    110.4     -0.01399  -0.00006  -0.00026   0.02568
 767   90628.4    110.3      0.03048  -0.15506   0.09774  -0.00038
 768   90702.7    110.3     -0.00946  -0.32522   0.19903   0.00002
 769   90795.0    110.1      0.00797  -0.00354   0.03794  -0.00006
 770   90809.4    110.1      0.05376   0.00053   0.00033   0.01463
 771   90819.6    110.1      0.00171   0.00050   0.00046  -0.09645
 772   90829.3    110.1     -0.01424   0.06515   0.16731   0.00043
 773   90868.1    110.0     -0.06374   0.17177   0.25198   0.00118
 774   90921.4    110.0      0.09663  -0.00113  -0.00025   0.34790
 775   90966.7    109.9     -0.05375   0.16942  -0.09220   0.00139
 776   91009.6    109.9     -0.01385   0.03707   0.08764  -0.00023
 777   91021.3    109.9     -0.00679  -0.06107  -0.12155  -0.00026
 778   91029.1    109.9      0.03882  -0.00008   0.00050   0.23056
 779   91055.7    109.8     -0.06973   0.00048   0.00023   0.42768
 780   91063.0    109.8      0.06544   0.07476   0.06268  -0.00331
 781   91083.5    109.8     -0.05790   0.00112  -0.09645   0.00206
 782   91098.4    109.8      0.01656   0.00010  -0.00049  -0.08877
 783   91129.5    109.7     -0.00107   0.00028   0.00026   0.09854
 784   91251.0    109.6     -0.00975   0.04141   0.01622  -0.00054
 785   91258.5    109.6     -0.00047   0.00016  -0.00008   0.00112
 786   91390.1    109.4      0.03045  -0.19300  -0.15354  -0.00043
 787   91407.9    109.4      0.01108  -0.15994  -0.33256   0.00029
 788   91410.4    109.4     -0.03185   0.00007   0.00041   0.30723
 789   91431.6    109.4     -0.00224   0.01523   0.03675   0.00018
 790   91436.1    109.4      0.02917  -0.00027   0.00015  -0.05704
 791   91439.7    109.4     -0.02743   0.02956  -0.01489  -0.00111
 792   91481.6    109.3     -0.00106   0.00002  -0.00010  -0.03491
 793   91504.7    109.3      0.00143   0.00003   0.00009   0.10765
 794   91541.2    109.2     -0.00304  -0.01909   0.03302   0.00002
 795   91607.6    109.2      0.00852   0.35882  -0.18227   0.00023
 796   91643.2    109.1     -0.01154   0.04088   0.14022  -0.00004
 797   91728.3    109.0      0.01130  -0.00052  -0.00012   0.02134
 798   91788.3    108.9      0.00419  -0.01792  -0.02156   0.00020
 799   91850.4    108.9     -0.00932   0.00006  -0.00016   0.10038
 800   91921.3    108.8      0.00920   0.00007  -0.00019  -0.05754
 801   91924.9    108.8      0.00001  -0.03090   0.01888   0.00009
 802   91953.8    108.8      0.00098   0.04059   0.09798  -0.00008
 803   91989.9    108.7     -0.00195   0.00002  -0.00022  -0.24906
 804   92056.8    108.6     -0.02908  -0.00011  -0.00021   0.15243
 805   92063.7    108.6      0.00418   0.02750   0.01562   0.00072
 806   92098.2    108.6     -0.00106  -0.00013  -0.00002   0.08114
 807   92148.8    108.5      0.01774  -0.00305  -0.00615   0.43034
 808   92150.1    108.5     -0.07205  -0.04799  -0.10017  -0.02563
 809   92171.9    108.5      1.25328  -0.00303  -0.00050  -0.50566
 810   92174.8    108.5     -1.21295   0.09465   0.00949  -0.01648
 811   92187.2    108.5     -0.01690  -0.00006   0.00011   0.11028
 812   92195.7    108.5      0.01558   0.10938  -0.05802   0.00072
 813   92248.5    108.4      0.00196  -0.02724  -0.03972   0.00055
 814   92339.5    108.3     -0.00774  -0.03549  -0.05527  -0.00048
 815   92364.6    108.3     -0.02285  -0.04489  -0.08830   0.00065
 816   92400.0    108.2     -0.06564  -0.00039  -0.00057   0.20799
 817   92416.1    108.2      0.02294   0.00001   0.00020  -0.22011
 818   92428.6    108.2      0.02188   0.09833   0.12895   0.00085
 819   92460.6    108.2     -0.01940   0.06380  -0.07917  -0.00060
 820   92479.7    108.1     -0.05012   0.01785   0.06250  -0.00069
 821   92484.7    108.1      0.14055  -0.00053  -0.00077  -0.09803
 822   92539.7    108.1     -0.09811   0.07633   0.12125  -0.00165
 823   92590.2    108.0     -0.14065   0.00149   0.00048  -0.42837
 824   92592.1    108.0      0.17422   0.04618   0.03103   0.01439
 825   92620.2    108.0      0.08557  -0.00047  -0.00065  -0.01144
 826   92628.1    108.0     -0.00279   0.00069   0.00081   0.08404
 827   92639.9    107.9      0.05029  -0.00112  -0.05416  -0.00092
 828   92655.7    107.9     -0.31539   0.00168   0.00358   0.48851
 829   92660.9    107.9     -0.00481   0.03090  -0.21252   0.00249
 830   92661.6    107.9      0.22070   0.21023   0.25453  -0.00478
 831   92733.7    107.8     -0.09632  -0.10160   0.08632  -0.00174
 832   92756.8    107.8      0.08787  -0.00072   0.00058   0.11272
 833   92770.6    107.8      0.00762   0.00033   0.00015  -0.03538
 834   92803.8    107.8     -0.03268   0.00172   0.06329  -0.00067
 835   92849.1    107.7      0.45516  -0.00023   0.00047   0.48186
 836   92861.6    107.7     -0.41598  -0.01448   0.01831  -0.00695
 837   92906.2    107.6     -0.00910   0.00000   0.00009  -0.10339
 838   92935.8    107.6     -0.01633  -0.03517   0.02874   0.00044
 839   92960.7    107.6      0.00312   0.00011  -0.00000   0.11518
 840   93094.8    107.4      0.11739  -0.00006  -0.00032   0.58785
 841   93124.1    107.4     -0.11334  -0.02915  -0.07764  -0.00172
 842   93132.4    107.4      0.00651  -0.00015  -0.00029   0.08468
 843   93178.4    107.3     -0.03328   0.05153   0.05082   0.00069
 844   93247.7    107.2      0.00561   0.00011  -0.00014   0.05418
 845   93291.3    107.2      0.02691  -0.21619   0.10782   0.00028
 846   93338.2    107.1      0.02613   0.00040  -0.00034  -0.02909
 847   93353.9    107.1     -0.05629  -0.00245   0.00074  -0.02008
 848   93355.2    107.1      0.04930   0.07175  -0.02577  -0.00045
 849   93407.8    107.1     -0.01583   0.06594   0.10617  -0.00136
 850   93433.9    107.0      0.08940  -0.00065  -0.00048  -0.25076
 851   93454.4    107.0     -0.02860   0.13378   0.20170  -0.00019
 852   93467.6    107.0      0.21706  -0.00017  -0.00146   0.18394
 853   93480.1    107.0     -0.41061   0.02061  -0.13430  -0.00350
 854   93498.5    107.0      0.16340  -0.00026   0.00093  -0.26841
 855   93594.2    106.8     -0.00006  -0.00004   0.00002  -0.11205
 856   93622.4    106.8     -0.00888  -0.00007  -0.00033   0.01122
 857   93642.8    106.8      0.01468   0.01419   0.11825   0.00019
 858   93716.6    106.7      0.07816   0.00035  -0.00037   0.06972
 859   93721.3    106.7     -0.09025   0.14221  -0.08206  -0.00014
 860   93741.6    106.7      0.00277   0.00008  -0.00010  -0.35325
 861   93795.7    106.6     -0.01994   0.00010   0.00059  -0.08085
 862   93867.5    106.5      0.04256   0.03544   0.15913   0.00001
 863   93886.5    106.5     -0.00924   0.00000  -0.00081   0.01524
 864   93944.2    106.4     -0.00696   0.06346   0.03333  -0.00024
 865   93961.2    106.4      0.00373  -0.00032  -0.00010   0.02506
 866   93972.8    106.4     -0.00402  -0.00030  -0.00028  -0.21968
 867   94027.9    106.4      0.00027   0.03720  -0.00569  -0.00005
 868   94056.5    106.3      0.00595   0.06535   0.05105  -0.00045
 869   94075.0    106.3     -0.00395   0.00020   0.00014   0.03030
 870   94093.8    106.3     -0.07374  -0.00105   0.00042   0.15223
 871   94109.5    106.3      0.04600   0.10066  -0.06219   0.00155
 872   94146.8    106.2     -0.00566  -0.00105  -0.00082   0.02604
 873   94165.5    106.2      0.02059   0.12149   0.16250   0.00037
 874   94227.5    106.1      0.08865  -0.06649   0.06058   0.00100
 875   94234.1    106.1     -0.06450  -0.00087   0.00084  -0.06879
 876   94251.0    106.1     -0.01523   0.08378   0.00795   0.00049
 877   94273.0    106.1      0.00377   0.00034  -0.00015  -0.12980
 878   94348.3    106.0     -0.02039  -0.00002   0.00007  -0.09656
 879   94350.2    106.0      0.03337   0.00854   0.02281   0.00049
 880   94356.6    106.0     -0.01703   0.00007   0.00011  -0.07599
 881   94390.4    105.9      0.00334   0.02489  -0.01860  -0.00022
 882   94430.8    105.9     -0.00684   0.10641  -0.07976   0.00010
 883   94443.2    105.9      0.01711   0.00006  -0.00001   0.11866
 884   94457.6    105.9      0.08810   0.03786  -0.02718  -0.00150
 885   94459.7    105.9     -0.07998  -0.00094   0.00069  -0.07065
 886   94562.4    105.8      0.01585  -0.03262  -0.08372  -0.00039
 887   94579.7    105.7     -0.04455  -0.15073   0.07951  -0.00642
 888   94580.8    105.7      0.02350  -0.01500   0.00739   0.06702
 889   94647.8    105.7     -0.00303   0.00011  -0.00016  -0.04119
 890   94724.1    105.6     -0.00104   0.00006  -0.00004   0.03190
 891   94763.6    105.5     -0.00412   0.00008  -0.00003   0.05639
 892   94839.5    105.4     -1.46630  -0.00164   0.00116   0.28977
 893   94840.0    105.4      1.46957  -0.02101   0.01540  -0.02091
 894   94883.8    105.4      0.03146  -0.04023   0.04445   0.00035
 895   94905.3    105.4      0.02050  -0.00031   0.00013   0.00282
 896   94942.8    105.3     -0.00833  -0.00003  -0.00011  -0.28231
 897   94995.5    105.3      0.01575   0.01858   0.03083  -0.00124
 898   95022.8    105.2     -0.00773  -0.00001  -0.00017  -0.01360
 899   95066.7    105.2     -0.01782  -0.06820   0.03938  -0.00036
 900   95085.4    105.2      0.56015   0.04034   0.05630   0.00145
 901   95085.8    105.2     -0.55295  -0.00223  -0.00352   0.03013
 902   95121.3    105.1     -0.02125  -0.00002  -0.00007  -0.11846
 903   95138.4    105.1      0.00210  -0.00019   0.00012   0.05913
 904   95194.5    105.0     -0.00053  -0.00002  -0.00006  -0.22080
 905   95197.4    105.0     -0.03427   0.06674  -0.03536   0.00084
 906   95230.1    105.0      0.02872   0.00014  -0.00001  -0.20096
 907   95305.5    104.9      0.01280   0.00018   0.00007  -0.12916
 908   95330.2    104.9     -0.00577   0.03873  -0.00142   0.00000
 909   95376.2    104.8     -0.00305  -0.00004   0.00006   0.01168
 910   95413.3    104.8      0.00148   0.03118   0.00526  -0.00005
 911   95504.3    104.7      0.09943   0.00009  -0.00044  -0.13680
 912   95515.1    104.7     -0.07750  -0.02104   0.03969  -0.00061
 913   95578.1    104.6      0.00036  -0.05512   0.04437   0.00005
 914   95583.8    104.6     -0.01678  -0.00033  -0.00049  -0.09699
 915   95633.1    104.6     -0.01995  -0.03244   0.04446   0.00039
 916   95684.4    104.5      0.10830   0.22035   0.34484   0.00173
 917   95691.4    104.5     -0.09896   0.00292   0.00499  -0.11868
 918   95861.7    104.3      0.00349  -0.00007   0.00005   0.08846
 919   95947.1    104.2     -0.00298  -0.12394  -0.17481  -0.00009
 920   96054.9    104.1     -0.00341  -0.04105   0.05601   0.00089
 921   96066.2    104.1      0.00189   0.00037  -0.00055   0.05914
 922   96086.7    104.1     -0.13301   0.00810  -0.11118   0.00302
 923   96090.8    104.1      0.13051  -0.00009   0.00231   0.11507
 924   96115.8    104.0     -0.00137  -0.00001  -0.00010  -0.37658
 925   96179.2    104.0     -0.00131   0.02548  -0.07707  -0.00002
 926   96253.7    103.9     -0.15410  -0.06938  -0.10080  -0.00038
 927   96255.3    103.9      0.17441   0.00090   0.00195  -0.01015
 928   96287.3    103.9      0.02775   0.03514  -0.00568  -0.00025
 929   96311.4    103.8     -0.07194  -0.06569  -0.05527  -0.00050
 930   96318.5    103.8      0.03246  -0.00068  -0.00033   0.02365
 931   96353.2    103.8     -0.00242  -0.00001  -0.00005  -0.02965
 932   96379.3    103.8      0.00524  -0.00002   0.00019   0.26875
 933   96470.7    103.7     -0.13251  -0.00233   0.00035   0.19776
 934   96475.6    103.7      0.17660   0.45688  -0.16048   0.00126
 935   96479.8    103.6     -0.05669   0.31889  -0.27790  -0.00034
 936   96583.0    103.5     -0.02489  -0.01772   0.05070  -0.00003
 937   96587.8    103.5     -0.10732  -0.00038  -0.00020  -0.15893
 938   96641.7    103.5      0.13186  -0.17153  -0.08233   0.00296
 939   96657.3    103.5      0.02558  -0.00128  -0.00011  -0.30344
 940   96665.3    103.4     -0.00254   0.02624   0.12966   0.00079
 941   96712.5    103.4     -0.03777   0.02097  -0.13648  -0.00013
 942   96759.4    103.3      0.13084  -0.28683   0.17954   0.00065
 943   96783.8    103.3     -0.14930  -0.00087   0.00043  -0.17989
 944   96855.6    103.2      0.21327   0.06553   0.19476   0.00087
 945   96861.2    103.2     -0.18151   0.00024   0.00135  -0.14973
 946   96891.2    103.2     -1.33666  -0.01202  -0.00299  -0.02703
 947   96893.0    103.2      1.40243  -0.24907  -0.06722   0.00215
 948   96908.2    103.2      0.07216   0.00294   0.00238   0.10903
 949   96928.1    103.2     -0.03656  -0.09215  -0.07991   0.00144
 950   96940.9    103.2     -0.04000  -0.05372   0.23414  -0.00036
 951   96958.0    103.1     -0.09859   0.00023   0.00056   0.06311
 952   96984.4    103.1      0.00791   0.00010   0.00032  -0.05048
 953   97034.9    103.1     -0.00944  -0.00019   0.00021  -0.00509
 954   97063.0    103.0      0.00331   0.00002  -0.00007  -0.03430
 955   97120.1    103.0     -0.05783  -0.09903  -0.13654  -0.00003
 956   97173.5    102.9      0.00880   0.00048  -0.00060   0.05571
 957   97183.8    102.9      0.01130  -0.00016  -0.00030  -0.01465
 958   97192.6    102.9      0.01739   0.11521  -0.08139  -0.00028
 959   97252.6    102.8     -0.00522  -0.00017  -0.00010  -0.04165
 960   97300.0    102.8     -1.80468  -0.11868  -0.34198   0.00243
 961   97303.0    102.8      1.84136  -0.00607  -0.01655  -0.05186
 962   97362.4    102.7     -0.01850  -0.00003  -0.00007  -0.46251
 963   97409.2    102.7      0.00239   0.00029  -0.00015   0.13126
 964   97412.7    102.7      0.23268  -0.13324  -0.00934   0.00068
 965   97415.3    102.7     -0.18861   0.00197   0.00003   0.02149
 966   97459.2    102.6      0.02913   0.00011  -0.00017  -0.06292
 967   97469.5    102.6     -0.02280  -0.06889  -0.17487   0.00007
 968   97582.1    102.5     -0.00041   0.00002   0.00008  -0.00130
 969   97611.0    102.4      0.00066   0.02810  -0.01283   0.00003
 970   97696.0    102.4     -0.00276  -0.00202   0.02135   0.00012
 971   97723.6    102.3     -0.00183  -0.00000   0.00010  -0.06458
 972   97758.3    102.3      0.01221   0.01478   0.08718   0.00023
 973   97759.3    102.3     -0.01139  -0.00024  -0.00082   0.02669
 974   97795.6    102.3     -0.00304  -0.00031  -0.00022   0.04502
 975   97863.8    102.2     -0.02467   0.04894   0.11678   0.00004
 976   97880.7    102.2      0.10343   0.00134   0.00192  -0.12007
 977   97888.4    102.2     -0.12717   0.15454   0.10399   0.00131
 978   97905.0    102.1     -0.33829   0.00925   0.24810   0.00047
 979   97908.2    102.1      0.32998   0.00047   0.00706   0.01448
 980   97965.5    102.1      0.07957   0.00003  -0.00055  -0.02600
 981   98018.2    102.0     -0.00458   0.11568   0.20202   0.00042
 982   98077.7    102.0     -6.07154  -0.02445  -0.15346  -0.04015
 983   98079.0    102.0      5.98016   0.00368   0.01814  -0.38044
 984   98092.3    101.9      0.04610   0.17540   0.27616   0.00126
 985   98141.1    101.9     -0.02299   0.15286   0.17531   0.00063
 986   98158.7    101.9      0.00384  -0.00010  -0.00016   0.05139
 987   98209.0    101.8     -0.02598  -0.05001  -0.04790   0.00101
 988   98224.2    101.8      0.04659   0.00015   0.00042   0.33508
 989   98291.0    101.7      0.10312  -0.11834  -0.00861   0.00157
 990   98303.9    101.7     -0.11387  -0.00077   0.00012  -0.24100
 991   98319.6    101.7     -0.00684   0.07558  -0.08946   0.00082
 992   98409.4    101.6      0.00862  -0.02647  -0.05016  -0.00055
 993   98452.5    101.6     -0.03584   0.00053  -0.00033  -0.29271
 994   98492.9    101.5     -0.00365   0.00222   0.00359  -0.00051
 995   98497.6    101.5      0.03352   0.30423  -0.19035   0.00072
 996   98529.5    101.5     -0.00638   0.09160  -0.07168   0.00031
 997   98588.3    101.4      0.13412  -0.01659   0.12286   0.00081
 998   98629.8    101.4     -0.13305   0.16255   0.01150   0.00075
 999   98633.5    101.4      0.11080  -0.00168  -0.00037   0.07196
 1000   98726.6    101.3     -0.00096  -0.01026  -0.01330  -0.00001

Total run time:    13155.911 sec

           *** ORCA-CIS/TD-DFT FINISHED WITHOUT ERROR ***

Maximum memory used throughout the entire CIS-calculation: 4428.4 MB

-----------------------
CIS/TD-DFT TOTAL ENERGY
-----------------------

    E(SCF)  =   -914.877444088 Eh
    DE(CIS) =      0.096468876 Eh (Root  1)
    ----------------------------- ---------
    E(tot)  =   -914.780975212 Eh



-------------------------------------------------------------------------------
                          DFT DISPERSION CORRECTION                            
                                                                               
                                 DFTD4 V2.5                                    
-------------------------------------------------------------------------------
The B3LYP functional is recognized
Active option DFTDOPT                   ...         5   

Starting D4
-------------------------   ----------------
Dispersion correction           -0.091105918
-------------------------   ----------------


-------------------------   --------------------
FINAL SINGLE POINT ENERGY      -914.872081129912
-------------------------   --------------------


                            ***************************************
                            *     ORCA property calculations      *
                            ***************************************

                                    ---------------------
                                    Active property flags
                                    ---------------------
   (+) Dipole Moment


------------------------------------------------------------------------------
                       ORCA ELECTRIC PROPERTIES CALCULATION
------------------------------------------------------------------------------

Dipole Moment Calculation                       ... on
Quadrupole Moment Calculation                   ... off
Polarizability Calculation                      ... off
GBWName                                         ... loss_eight_seven_eleven_twelve_three_four_two_one_five_six_spectra.gbw
Electron density                                ... loss_eight_seven_eleven_twelve_three_four_two_one_five_six_spectra.scfp
The origin for moment calculation is the CENTER OF MASS  = ( 0.030079,  0.051799 -0.000387)

-------------
DIPOLE MOMENT
-------------
                                X             Y             Z
Electronic contribution:     -3.75352      -6.69581       0.00004
Nuclear contribution   :      4.24400       7.56837      -0.00004
                        -----------------------------------------
Total Dipole Moment    :      0.49048       0.87256      -0.00000
                        -----------------------------------------
Magnitude (a.u.)       :      1.00097
Magnitude (Debye)      :      2.54426



--------------------
Rotational spectrum 
--------------------
 
Rotational constants in cm-1:     0.012496     0.011858     0.006084 
Rotational constants in MHz :   374.610686   355.500967   182.402870 

 Dipole components along the rotational axes: 
x,y,z [a.u.] :     1.000968    -0.000253     0.000001 
x,y,z [Debye]:     2.544257    -0.000644     0.000001 

 

Timings for individual modules:

Sum of individual times         ...    13791.876 sec (= 229.865 min)
GTO integral calculation        ...        9.961 sec (=   0.166 min)   0.1 %
SCF iterations                  ...      607.858 sec (=  10.131 min)   4.4 %
CIS module                      ...    13174.057 sec (= 219.568 min)  95.5 %
                             ****ORCA TERMINATED NORMALLY****
TOTAL RUN TIME: 0 days 3 hours 49 minutes 56 seconds 325 msec
