
                                 *****************
                                 * O   R   C   A *
                                 *****************

                                            #,                                       
                                            ###                                      
                                            ####                                     
                                            #####                                    
                                            ######                                   
                                           ########,                                 
                                     ,,################,,,,,                         
                               ,,#################################,,                 
                          ,,##########################################,,             
                       ,#########################################, ''#####,          
                    ,#############################################,,   '####,        
                  ,##################################################,,,,####,       
                ,###########''''           ''''###############################       
              ,#####''   ,,,,##########,,,,          '''####'''          '####       
            ,##' ,,,,###########################,,,                        '##       
           ' ,,###''''                  '''############,,,                           
         ,,##''                                '''############,,,,        ,,,,,,###''
      ,#''                                            '''#######################'''  
     '                                                          ''''####''''         
             ,#######,   #######,   ,#######,      ##                                
            ,#'     '#,  ##    ##  ,#'     '#,    #''#        ######   ,####,        
            ##       ##  ##   ,#'  ##            #'  '#       #        #'  '#        
            ##       ##  #######   ##           ,######,      #####,   #    #        
            '#,     ,#'  ##    ##  '#,     ,#' ,#      #,         ##   #,  ,#        
             '#######'   ##     ##  '#######'  #'      '#     #####' # '####'        



                  #######################################################
                  #                        -***-                        #
                  #          Department of theory and spectroscopy      #
                  #    Directorship and core code : Frank Neese         #
                  #        Max Planck Institute fuer Kohlenforschung    #
                  #                Kaiser Wilhelm Platz 1               #
                  #                 D-45470 Muelheim/Ruhr               #
                  #                      Germany                        #
                  #                                                     #
                  #                  All rights reserved                #
                  #                        -***-                        #
                  #######################################################



                         Program Version 5.0.4 -  RELEASE  -

 With contributions from (in alphabetic order):
   Daniel Aravena         : Magnetic Suceptibility
   Michael Atanasov       : Ab Initio Ligand Field Theory (pilot matlab implementation)
   Alexander A. Auer      : GIAO ZORA, VPT2 properties, NMR spectrum
   Ute Becker             : Parallelization
   Giovanni Bistoni       : ED, misc. LED, open-shell LED, HFLD
   Martin Brehm           : Molecular dynamics
   Dmytro Bykov           : SCF Hessian
   Vijay G. Chilkuri      : MRCI spin determinant printing, contributions to CSF-ICE
   Dipayan Datta          : RHF DLPNO-CCSD density
   Achintya Kumar Dutta   : EOM-CC, STEOM-CC
   Dmitry Ganyushin       : Spin-Orbit,Spin-Spin,Magnetic field MRCI
   Miquel Garcia          : C-PCM and meta-GGA Hessian, CC/C-PCM, Gaussian charge scheme
   Yang Guo               : DLPNO-NEVPT2, F12-NEVPT2, CIM, IAO-localization
   Andreas Hansen         : Spin unrestricted coupled pair/coupled cluster methods
   Benjamin Helmich-Paris : MC-RPA, TRAH-SCF, COSX integrals
   Lee Huntington         : MR-EOM, pCC
   Robert Izsak           : Overlap fitted RIJCOSX, COSX-SCS-MP3, EOM
   Marcus Kettner         : VPT2
   Christian Kollmar      : KDIIS, OOCD, Brueckner-CCSD(T), CCSD density, CASPT2, CASPT2-K
   Simone Kossmann        : Meta GGA functionals, TD-DFT gradient, OOMP2, MP2 Hessian
   Martin Krupicka        : Initial AUTO-CI
   Lucas Lang             : DCDCAS
   Marvin Lechner         : AUTO-CI (C++ implementation), FIC-MRCC
   Dagmar Lenk            : GEPOL surface, SMD
   Dimitrios Liakos       : Extrapolation schemes; Compound Job, initial MDCI parallelization
   Dimitrios Manganas     : Further ROCIS development; embedding schemes
   Dimitrios Pantazis     : SARC Basis sets
   Anastasios Papadopoulos: AUTO-CI, single reference methods and gradients
   Taras Petrenko         : DFT Hessian,TD-DFT gradient, ASA, ECA, R-Raman, ABS, FL, XAS/XES, NRVS
   Peter Pinski           : DLPNO-MP2, DLPNO-MP2 Gradient
   Christoph Reimann      : Effective Core Potentials
   Marius Retegan         : Local ZFS, SOC
   Christoph Riplinger    : Optimizer, TS searches, QM/MM, DLPNO-CCSD(T), (RO)-DLPNO pert. Triples
   Tobias Risthaus        : Range-separated hybrids, TD-DFT gradient, RPA, STAB
   Michael Roemelt        : Original ROCIS implementation
   Masaaki Saitow         : Open-shell DLPNO-CCSD energy and density
   Barbara Sandhoefer     : DKH picture change effects
   Avijit Sen             : IP-ROCIS
   Kantharuban Sivalingam : CASSCF convergence, NEVPT2, FIC-MRCI
   Bernardo de Souza      : ESD, SOC TD-DFT
   Georgi Stoychev        : AutoAux, RI-MP2 NMR, DLPNO-MP2 response
   Willem Van den Heuvel  : Paramagnetic NMR
   Boris Wezisla          : Elementary symmetry handling
   Frank Wennmohs         : Technical directorship


 We gratefully acknowledge several colleagues who have allowed us to
 interface, adapt or use parts of their codes:
   Stefan Grimme, W. Hujo, H. Kruse, P. Pracht,  : VdW corrections, initial TS optimization,
                  C. Bannwarth, S. Ehlert          DFT functionals, gCP, sTDA/sTD-DF
   Ed Valeev, F. Pavosevic, A. Kumar             : LibInt (2-el integral package), F12 methods
   Garnet Chan, S. Sharma, J. Yang, R. Olivares  : DMRG
   Ulf Ekstrom                                   : XCFun DFT Library
   Mihaly Kallay                                 : mrcc  (arbitrary order and MRCC methods)
   Jiri Pittner, Ondrej Demel                    : Mk-CCSD
   Frank Weinhold                                : gennbo (NPA and NBO analysis)
   Christopher J. Cramer and Donald G. Truhlar   : smd solvation model
   Lars Goerigk                                  : TD-DFT with DH, B97 family of functionals
   V. Asgeirsson, H. Jonsson                     : NEB implementation
   FAccTs GmbH                                   : IRC, NEB, NEB-TS, DLPNO-Multilevel, CI-OPT
                                                   MM, QMMM, 2- and 3-layer-ONIOM, Crystal-QMMM,
                                                   LR-CPCM, SF, NACMEs, symmetry and pop. for TD-DFT,
                                                   nearIR, NL-DFT gradient (VV10), updates on ESD,
                                                   ML-optimized integration grids
   S Lehtola, MJT Oliveira, MAL Marques          : LibXC Library
   Liviu Ungur et al                             : ANISO software


 Your calculation uses the libint2 library for the computation of 2-el integrals
 For citations please refer to: http://libint.valeyev.net

 Your ORCA version has been built with support for libXC version: 5.1.0
 For citations please refer to: https://tddft.org/programs/libxc/

 This ORCA versions uses:
   CBLAS   interface :  Fast vector & matrix operations
   LAPACKE interface :  Fast linear algebra routines
   Shared memory     :  Shared parallel matrices


Your calculation utilizes the atom-pairwise dispersion correction
based on tight binding partial charges (D4)
Cite in your paper:
E.Caldeweyher, C.Bannwarth, S.Grimme, J.Chem.Phys., (2017), 147, 034112.
E.Caldeweyher, S.Ehlert, A.Hansen, H.Neugebauer, S.Grimme, J.Chem.Phys., (2018), in progress.
   

================================================================================

----- Orbital basis set information -----
Your calculation utilizes the basis: 6-311+G**
   H, Li - Ne  : R. Krishnan, J. S. Binkley, R. Seeger and J. A. Pople, J. Chem. Phys. 72, 650 (1980).
   Na - Ar     : A. D. McLean and G. S. Chandler J. Chem. Phys. 72, 5639, (1980).
   K  - Ca     : J.-P. Blaudeau, M. P. McGrath, L. A. Curtiss and L. Radom, J. Chem. Phys. 107, 5016 (1997).
   Ga - Kr     : L. A. Curtiss, M. P. McGrath, J.-P. Blandeau, N. E. Davis, R. C. Binning and L. Radom, J. Chem. Phys. 103, 6104 (1995).
   Pol./Diff.
   H, Li - Cl  : T. Clark, J. Chandrasekhar and P. v. R. Schleyer, J. Comp. Chem. 4, 294 (1983).
   H - Ne      : M. J. Frisch, J. A. Pople and J. S. Binkley, J. Chem. Phys. 80, 3265 (1984).

----- AuxJ basis set information -----
Your calculation utilizes the auxiliary basis: def2/J
   F. Weigend, Phys. Chem. Chem. Phys. 8, 1057 (2006).

================================================================================
                                        WARNINGS
                       Please study these warnings very carefully!
================================================================================

INFO   : Checking CIS options ...

WARNING: CIS/ROCIS methods need fully converged wavefunctions
  ===> : Setting SCFConvForced true
         You can overwrite this default with %scf ConvForced false 


INFO   : the flag for use of the SHARK integral package has been found!

================================================================================
                                       INPUT FILE
================================================================================
NAME = Hexahydropyrene_spectra.inp
|  1> !B3LYP 6-311+G**  D4
|  2> 
|  3> %maxcore 5000
|  4> %pal
|  5> nprocs 7
|  6> end
|  7> 
|  8> %TDDFT
|  9>   NROOTS 1000
| 10>   END
| 11> 
| 12> %scf
| 13> stabperform true
| 14> STABDTol 1e-5
| 15> STABRTol 1e-5
| 16> end
| 17>   
| 18> * XYZ 0 1
| 19>   C   -2.84649481311413      1.32853934278519      0.04082544356362
| 20>   C   -3.54252477281126      0.01994727577677     -0.33605495274669
| 21>   C   -2.83457073606975     -1.16459111854875      0.31871888226741
| 22>   C   -1.39701413503665     -1.27284678953460     -0.19192955803844
| 23>   C   -0.60778189749083     -2.39462513401217      0.48685667106428
| 24>   C   0.78280703912992     -2.50538872088470     -0.13496808632783
| 25>   C   1.51814970578825     -1.18574242893202     -0.09377498747591
| 26>   C   2.89606793121302     -1.14864983454714     -0.07156557965300
| 27>   C   3.60029305628665      0.07194215298803     -0.03113207606206
| 28>   C   2.91272323180302      1.25973092723284      0.00497211713763
| 29>   C   1.49679423859972      1.27172733578483     -0.00399200134586
| 30>   C   0.76345538252798      2.48378034803392      0.05160731595718
| 31>   C   -0.60425071907424      2.46793065706477      0.05576720469919
| 32>   C   -1.33356075610284      1.25237015608953     -0.00996113147980
| 33>   C   -0.65359902462919      0.04989388477955     -0.08256147958178
| 34>   C   0.77930999944335      0.03590504658895     -0.06614838926150
| 35>   H   -3.19207700044805      2.14305246952036     -0.60527737099407
| 36>   H   -3.14145377005098      1.61544427458061      1.05964867159191
| 37>   H   -4.59662501394741      0.05893629674610     -0.04457185891001
| 38>   H   -3.52265195310175     -0.10939518668025     -1.42500050923922
| 39>   H   -2.82767810590250     -1.03737931324478      1.40910785138869
| 40>   H   -3.36700692838662     -2.09932745923735      0.11344666923069
| 41>   H   -1.45240989786308     -1.52640514968263     -1.26308063325247
| 42>   H   -0.52098884418308     -2.18224796473432      1.55905583992564
| 43>   H   -1.14712231372923     -3.34248653150317      0.38830475934375
| 44>   H   1.37696615538652     -3.27484455038569      0.36726258084472
| 45>   H   0.67865465379689     -2.83227840543068     -1.17888914336500
| 46>   H   3.45098861232817     -2.08288638823669     -0.08041532119640
| 47>   H   4.68556022408452      0.06576823348553     -0.01754280207247
| 48>   H   3.44420915128685      2.20590793785539      0.04760152993843
| 49>   H   1.30478610566844      3.42439785857417      0.09426977468638
| 50>   H   -1.15605480540169      3.40282077770839      0.10822056936297
| 51> **                         ****END OF INPUT****
================================================================================

                       ****************************
                       * Single Point Calculation *
                       ****************************

---------------------------------
CARTESIAN COORDINATES (ANGSTROEM)
---------------------------------
  C     -2.846495    1.328539    0.040825
  C     -3.542525    0.019947   -0.336055
  C     -2.834571   -1.164591    0.318719
  C     -1.397014   -1.272847   -0.191930
  C     -0.607782   -2.394625    0.486857
  C      0.782807   -2.505389   -0.134968
  C      1.518150   -1.185742   -0.093775
  C      2.896068   -1.148650   -0.071566
  C      3.600293    0.071942   -0.031132
  C      2.912723    1.259731    0.004972
  C      1.496794    1.271727   -0.003992
  C      0.763455    2.483780    0.051607
  C     -0.604251    2.467931    0.055767
  C     -1.333561    1.252370   -0.009961
  C     -0.653599    0.049894   -0.082561
  C      0.779310    0.035905   -0.066148
  H     -3.192077    2.143052   -0.605277
  H     -3.141454    1.615444    1.059649
  H     -4.596625    0.058936   -0.044572
  H     -3.522652   -0.109395   -1.425001
  H     -2.827678   -1.037379    1.409108
  H     -3.367007   -2.099327    0.113447
  H     -1.452410   -1.526405   -1.263081
  H     -0.520989   -2.182248    1.559056
  H     -1.147122   -3.342487    0.388305
  H      1.376966   -3.274845    0.367263
  H      0.678655   -2.832278   -1.178889
  H      3.450989   -2.082886   -0.080415
  H      4.685560    0.065768   -0.017543
  H      3.444209    2.205908    0.047602
  H      1.304786    3.424398    0.094270
  H     -1.156055    3.402821    0.108221

----------------------------
CARTESIAN COORDINATES (A.U.)
----------------------------
  NO LB      ZA    FRAG     MASS         X           Y           Z
   0 C     6.0000    0    12.011   -5.379096    2.510576    0.077149
   1 C     6.0000    0    12.011   -6.694402    0.037695   -0.635052
   2 C     6.0000    0    12.011   -5.356562   -2.200758    0.602291
   3 C     6.0000    0    12.011   -2.639974   -2.405332   -0.362694
   4 C     6.0000    0    12.011   -1.148541   -4.525186    0.920026
   5 C     6.0000    0    12.011    1.479291   -4.734499   -0.255053
   6 C     6.0000    0    12.011    2.868887   -2.240728   -0.177209
   7 C     6.0000    0    12.011    5.472775   -2.170634   -0.135239
   8 C     6.0000    0    12.011    6.803568    0.135951   -0.058831
   9 C     6.0000    0    12.011    5.504249    2.380546    0.009396
  10 C     6.0000    0    12.011    2.828531    2.403216   -0.007544
  11 C     6.0000    0    12.011    1.442722    4.693665    0.097524
  12 C     6.0000    0    12.011   -1.141868    4.663713    0.105385
  13 C     6.0000    0    12.011   -2.520065    2.366637   -0.018824
  14 C     6.0000    0    12.011   -1.235123    0.094286   -0.156019
  15 C     6.0000    0    12.011    1.472682    0.067851   -0.125002
  16 H     1.0000    0     1.008   -6.032151    4.049782   -1.143808
  17 H     1.0000    0     1.008   -5.936487    3.052747    2.002446
  18 H     1.0000    0     1.008   -8.686362    0.111373   -0.084229
  19 H     1.0000    0     1.008   -6.656847   -0.206727   -2.692861
  20 H     1.0000    0     1.008   -5.343537   -1.960363    2.662828
  21 H     1.0000    0     1.008   -6.362721   -3.967154    0.214383
  22 H     1.0000    0     1.008   -2.744657   -2.884488   -2.386876
  23 H     1.0000    0     1.008   -0.984526   -4.123851    2.946189
  24 H     1.0000    0     1.008   -2.167747   -6.316384    0.733790
  25 H     1.0000    0     1.008    2.602089   -6.188559    0.694026
  26 H     1.0000    0     1.008    1.282471   -5.352231   -2.227778
  27 H     1.0000    0     1.008    6.521423   -3.936085   -0.151963
  28 H     1.0000    0     1.008    8.854426    0.124284   -0.033151
  29 H     1.0000    0     1.008    6.508612    4.168562    0.089954
  30 H     1.0000    0     1.008    2.465688    6.471174    0.178144
  31 H     1.0000    0     1.008   -2.184627    6.430399    0.204507

--------------------------------
INTERNAL COORDINATES (ANGSTROEM)
--------------------------------
 C      0   0   0     0.000000000000     0.00000000     0.00000000
 C      1   0   0     1.529349448542     0.00000000     0.00000000
 C      2   1   0     1.527435399874   110.30296297     0.00000000
 C      3   2   1     1.529395338381   110.32975842   297.45626882
 C      4   3   2     1.530367577982   112.86345830   176.73855103
 C      5   4   3     1.527308806933   110.00639234   176.22827293
 C      6   5   4     1.511255122296   111.62904627    54.82836079
 C      7   6   5     1.378596298527   120.68194563   153.17692516
 C      8   7   6     1.409756253766   121.53698879   180.09337803
 C      9   8   7     1.372915856318   119.97686034     0.86643789
 C     10   9   8     1.416008186075   120.52704403   359.71826067
 C     11  10   9     1.417726936477   121.61639219   179.10035103
 C     12  11  10     1.367804261486   120.49341582   180.68892796
 C     13  12  11     1.419084449854   121.57929088   359.28193018
 C     14  13  12     1.383317732799   119.63094397   359.88568129
 C      7   6   5     1.427960046727   119.72367607   333.70857127
 H      1   2   3     1.095585473072   110.31911463   166.45998443
 H      1   2   3     1.098779320945   109.25353223   282.05923692
 H      2   1   3     1.094353624800   110.01415964   122.89909020
 H      2   1   3     1.096780208867   109.71438650   239.89807977
 H      3   2   1     1.097806201358   109.80527744    58.24894928
 H      3   2   1     1.095151590848   110.86854733   175.96140524
 H      4   3   2     1.102145706553   107.07002220   293.92218737
 H      5   4   3     1.096470771995   109.42484690   297.03773645
 H      5   4   3     1.095007667894   109.91214502    54.42819701
 H      6   5   4     1.094222542279   111.00915040   177.57951062
 H      6   5   4     1.098852018499   108.78760021   294.03885329
 H      8   7   6     1.086652298808   119.15378564   359.78084852
 H      9   8   7     1.085369803869   119.66471396   180.18501322
 H     10   9   8     1.086068821427   120.64205408   179.30621009
 H     12  11  10     1.086103281615   118.95587468     0.48085371
 H     13  12  11     1.086857232036   119.85779332   179.41596804

---------------------------
INTERNAL COORDINATES (A.U.)
---------------------------
 C      0   0   0     0.000000000000     0.00000000     0.00000000
 C      1   0   0     2.890051620808     0.00000000     0.00000000
 C      2   1   0     2.886434593019   110.30296297     0.00000000
 C      3   2   1     2.890138340036   110.32975842   297.45626882
 C      4   3   2     2.891975606619   112.86345830   176.73855103
 C      5   4   3     2.886195367029   110.00639234   176.22827293
 C      6   5   4     2.855858299625   111.62904627    54.82836079
 C      7   6   5     2.605169453453   120.68194563   153.17692516
 C      8   7   6     2.664053235201   121.53698879   180.09337803
 C      9   8   7     2.594434973359   119.97686034     0.86643789
 C     10   9   8     2.675867675073   120.52704403   359.71826067
 C     11  10   9     2.679115642624   121.61639219   179.10035103
 C     12  11  10     2.584775459018   120.49341582   180.68892796
 C     13  12  11     2.681680971131   121.57929088   359.28193018
 C     14  13  12     2.614091671187   119.63094397   359.88568129
 C      7   6   5     2.698453418495   119.72367607   333.70857127
 H      1   2   3     2.070356500408   110.31911463   166.45998443
 H      1   2   3     2.076391998202   109.25353223   282.05923692
 H      2   1   3     2.068028644535   110.01415964   122.89909020
 H      2   1   3     2.072614223864   109.71438650   239.89807977
 H      3   2   1     2.074553068688   109.80527744    58.24894928
 H      3   2   1     2.069536581832   110.86854733   175.96140524
 H      4   3   2     2.082753545061   107.07002220   293.92218737
 H      5   4   3     2.072029472920   109.42484690   297.03773645
 H      5   4   3     2.069264606863   109.91214502    54.42819701
 H      6   5   4     2.067780934471   111.00915040   177.57951062
 H      6   5   4     2.076529376669   108.78760021   294.03885329
 H      8   7   6     2.053475247543   119.15378564   359.78084852
 H      9   8   7     2.051051683339   119.66471396   180.18501322
 H     10   9   8     2.052372635088   120.64205408   179.30621009
 H     12  11  10     2.052437755406   118.95587468     0.48085371
 H     13  12  11     2.053862515220   119.85779332   179.41596804

---------------------
BASIS SET INFORMATION
---------------------
There are 2 groups of distinct atoms

 Group   1 Type C   : 12s6p1d contracted to 5s4p1d pattern {63111/3111/1}
 Group   2 Type H   : 5s1p contracted to 3s1p pattern {311/1}

Atom   0C    basis set group =>   1
Atom   1C    basis set group =>   1
Atom   2C    basis set group =>   1
Atom   3C    basis set group =>   1
Atom   4C    basis set group =>   1
Atom   5C    basis set group =>   1
Atom   6C    basis set group =>   1
Atom   7C    basis set group =>   1
Atom   8C    basis set group =>   1
Atom   9C    basis set group =>   1
Atom  10C    basis set group =>   1
Atom  11C    basis set group =>   1
Atom  12C    basis set group =>   1
Atom  13C    basis set group =>   1
Atom  14C    basis set group =>   1
Atom  15C    basis set group =>   1
Atom  16H    basis set group =>   2
Atom  17H    basis set group =>   2
Atom  18H    basis set group =>   2
Atom  19H    basis set group =>   2
Atom  20H    basis set group =>   2
Atom  21H    basis set group =>   2
Atom  22H    basis set group =>   2
Atom  23H    basis set group =>   2
Atom  24H    basis set group =>   2
Atom  25H    basis set group =>   2
Atom  26H    basis set group =>   2
Atom  27H    basis set group =>   2
Atom  28H    basis set group =>   2
Atom  29H    basis set group =>   2
Atom  30H    basis set group =>   2
Atom  31H    basis set group =>   2
---------------------------------
AUXILIARY/J BASIS SET INFORMATION
---------------------------------
There are 2 groups of distinct atoms

 Group   1 Type C   : 12s5p4d2f1g contracted to 6s4p3d1f1g pattern {711111/2111/211/2/1}
 Group   2 Type H   : 5s2p1d contracted to 3s1p1d pattern {311/2/1}

Atom   0C    basis set group =>   1
Atom   1C    basis set group =>   1
Atom   2C    basis set group =>   1
Atom   3C    basis set group =>   1
Atom   4C    basis set group =>   1
Atom   5C    basis set group =>   1
Atom   6C    basis set group =>   1
Atom   7C    basis set group =>   1
Atom   8C    basis set group =>   1
Atom   9C    basis set group =>   1
Atom  10C    basis set group =>   1
Atom  11C    basis set group =>   1
Atom  12C    basis set group =>   1
Atom  13C    basis set group =>   1
Atom  14C    basis set group =>   1
Atom  15C    basis set group =>   1
Atom  16H    basis set group =>   2
Atom  17H    basis set group =>   2
Atom  18H    basis set group =>   2
Atom  19H    basis set group =>   2
Atom  20H    basis set group =>   2
Atom  21H    basis set group =>   2
Atom  22H    basis set group =>   2
Atom  23H    basis set group =>   2
Atom  24H    basis set group =>   2
Atom  25H    basis set group =>   2
Atom  26H    basis set group =>   2
Atom  27H    basis set group =>   2
Atom  28H    basis set group =>   2
Atom  29H    basis set group =>   2
Atom  30H    basis set group =>   2
Atom  31H    basis set group =>   2


           ************************************************************
           *        Program running with 7 parallel MPI-processes     *
           *              working on a common directory               *
           ************************************************************
------------------------------------------------------------------------------
                           ORCA GTO INTEGRAL CALCULATION
                           -- RI-GTO INTEGRALS CHOSEN --
------------------------------------------------------------------------------
------------------------------------------------------------------------------
                   ___                                                        
                  /   \      - P O W E R E D   B Y -                         
                 /     \                                                     
                 |  |  |   _    _      __       _____    __    __             
                 |  |  |  | |  | |    /  \     |  _  \  |  |  /  |          
                  \  \/   | |  | |   /    \    | | | |  |  | /  /          
                 / \  \   | |__| |  /  /\  \   | |_| |  |  |/  /          
                |  |  |   |  __  | /  /__\  \  |    /   |      \           
                |  |  |   | |  | | |   __   |  |    \   |  |\   \          
                \     /   | |  | | |  |  |  |  | |\  \  |  | \   \       
                 \___/    |_|  |_| |__|  |__|  |_| \__\ |__|  \__/        
                                                                              
                      - O R C A' S   B I G   F R I E N D -                    
                                      &                                       
                       - I N T E G R A L  F E E D E R -                       
                                                                              
 v1 FN, 2020, v2 2021                                                         
------------------------------------------------------------------------------


Reading SHARK input file Hexahydropyrene_spectra.SHARKINP.tmp ... ok
----------------------
SHARK INTEGRAL PACKAGE
----------------------

Number of atoms                             ...     32
Number of basis functions                   ...    448
Number of shells                            ...    224
Maximum angular momentum                    ...      2
Integral batch strategy                     ... SHARK/LIBINT Hybrid
RI-J (if used) integral strategy            ... SPLIT-RIJ (Revised 2003 algorithm where possible)
Printlevel                                  ...      1
Contraction scheme used                     ... SEGMENTED contraction
Coulomb Range Separation                    ... NOT USED
Exchange Range Separation                   ... NOT USED
Finite Nucleus Model                        ... NOT USED
Auxiliary Coulomb fitting basis             ... AVAILABLE
   # of basis functions in Aux-J            ...    960
   # of shells in Aux-J                     ...    320
   Maximum angular momentum in Aux-J        ...      4
Auxiliary J/K fitting basis                 ... NOT available
Auxiliary Correlation fitting basis         ... NOT available
Auxiliary 'external' fitting basis          ... NOT available
Integral threshold                          ...     1.000000e-10
Primitive cut-off                           ...     1.000000e-11
Primitive pair pre-selection threshold      ...     1.000000e-11

Calculating pre-screening integrals         ... done (  0.0 sec) Dimension = 224
Organizing shell pair data                  ... done (  0.1 sec)
Shell pair information
Total number of shell pairs                 ...     25200
Shell pairs after pre-screening             ...     21236
Total number of primitive shell pairs       ...     80584
Primitive shell pairs kept                  ...     46744
          la=0 lb=0:   6771 shell pairs
          la=1 lb=0:   8716 shell pairs
          la=1 lb=1:   2823 shell pairs
          la=2 lb=0:   1680 shell pairs
          la=2 lb=1:   1119 shell pairs
          la=2 lb=2:    127 shell pairs

Calculating one electron integrals          ... done (  0.0 sec)
Calculating RI/J V-Matrix + Cholesky decomp.... done (  0.1 sec)
Calculating Nuclear repulsion               ... done (  0.0 sec) ENN=   1058.709182395779 Eh

SHARK setup successfully completed in   0.5 seconds

Maximum memory used throughout the entire GTOINT-calculation: 28.8 MB


           ************************************************************
           *        Program running with 7 parallel MPI-processes     *
           *              working on a common directory               *
           ************************************************************
-------------------------------------------------------------------------------
                                 ORCA SCF
-------------------------------------------------------------------------------

------------
SCF SETTINGS
------------
Hamiltonian:
 Density Functional     Method          .... DFT(GTOs)
 Exchange Functional    Exchange        .... B88
   X-Alpha parameter    XAlpha          ....  0.666667
   Becke's b parameter  XBeta           ....  0.004200
 Correlation Functional Correlation     .... LYP
 LDA part of GGA corr.  LDAOpt          .... VWN-5
 Gradients option       PostSCFGGA      .... off
 Hybrid DFT is turned on
   Fraction HF Exchange ScalHFX         ....  0.200000
   Scaling of DF-GGA-X  ScalDFX         ....  0.720000
   Scaling of DF-GGA-C  ScalDFC         ....  0.810000
   Scaling of DF-LDA-C  ScalLDAC        ....  1.000000
   Perturbative correction              ....  0.000000
   Density functional embedding theory  .... OFF
   NL short-range parameter             ....  4.800000
 RI-approximation to the Coulomb term is turned on
   Number of AuxJ basis functions       .... 960
   RIJ-COSX (HFX calculated with COS-X)).... on


General Settings:
 Integral files         IntName         .... Hexahydropyrene_spectra
 Hartree-Fock type      HFTyp           .... RHF
 Total Charge           Charge          ....    0
 Multiplicity           Mult            ....    1
 Number of Electrons    NEL             ....  112
 Basis Dimension        Dim             ....  448
 Nuclear Repulsion      ENuc            ....   1058.7091823958 Eh

Convergence Acceleration:
 DIIS                   CNVDIIS         .... on
   Start iteration      DIISMaxIt       ....    12
   Startup error        DIISStart       ....  0.200000
   # of expansion vecs  DIISMaxEq       ....     5
   Bias factor          DIISBfac        ....   1.050
   Max. coefficient     DIISMaxC        ....  10.000
 Trust-Rad. Augm. Hess. CNVTRAH         .... auto
   Auto Start mean grad. ratio tolernc. ....  1.125000
   Auto Start start iteration           ....    20
   Auto Start num. interpolation iter.  ....    10
   Max. Number of Micro iterations      ....    16
   Max. Number of Macro iterations      .... Maxiter - #DIIS iter
   Number of Davidson start vectors     ....     2
   Converg. threshold I  (grad. norm)   ....   5.000e-05
   Converg. threshold II (energy diff.) ....   1.000e-06
   Grad. Scal. Fac. for Micro threshold ....   0.100
   Minimum threshold for Micro iter.    ....   0.010
   NR start threshold (gradient norm)   ....   0.001
   Initial trust radius                 ....   0.400
   Minimum AH scaling param. (alpha)    ....   1.000
   Maximum AH scaling param. (alpha)    .... 1000.000
   Orbital update algorithm             .... Taylor
   White noise on init. David. guess    .... on
   Maximum white noise                  ....   0.010
   Quad. conv. algorithm                .... NR
 SOSCF                  CNVSOSCF        .... on
   Start iteration      SOSCFMaxIt      ....   150
   Startup grad/error   SOSCFStart      ....  0.003300
 Level Shifting         CNVShift        .... on
   Level shift para.    LevelShift      ....    0.2500
   Turn off err/grad.   ShiftErr        ....    0.0010
 Zerner damping         CNVZerner       .... off
 Static damping         CNVDamp         .... on
   Fraction old density DampFac         ....    0.7000
   Max. Damping (<1)    DampMax         ....    0.9800
   Min. Damping (>=0)   DampMin         ....    0.0000
   Turn off err/grad.   DampErr         ....    0.1000
 Fernandez-Rico         CNVRico         .... off

SCF Procedure:
 Maximum # iterations   MaxIter         ....   125
 SCF integral mode      SCFMode         .... Direct
   Integral package                     .... SHARK and LIBINT hybrid scheme
 Reset frequency        DirectResetFreq ....    20
 Integral Threshold     Thresh          ....  1.000e-10 Eh
 Primitive CutOff       TCut            ....  1.000e-11 Eh

Convergence Tolerance:
 Convergence Check Mode ConvCheckMode   .... Total+1el-Energy
 Convergence forced     ConvForced      .... 1
 Energy Change          TolE            ....  1.000e-06 Eh
 1-El. energy change                    ....  1.000e-03 Eh
 Orbital Gradient       TolG            ....  5.000e-05
 Orbital Rotation angle TolX            ....  5.000e-05
 DIIS Error             TolErr          ....  1.000e-06


Diagonalization of the overlap matrix:
Smallest eigenvalue                        ... 2.917e-08
Time for diagonalization                   ...    0.018 sec
Threshold for overlap eigenvalues          ... 1.000e-08
Number of eigenvalues below threshold      ... 0
Time for construction of square roots      ...    0.032 sec
Total time needed                          ...    0.051 sec

Time for model grid setup =    0.239 sec

------------------------------
INITIAL GUESS: MODEL POTENTIAL
------------------------------
Loading Hartree-Fock densities                     ... done
Calculating cut-offs                               ... done
Initializing the effective Hamiltonian             ... done
Setting up the integral package (SHARK)            ... done
Starting the Coulomb interaction                   ... done (   0.3 sec)
Reading the grid                                   ... done
Mapping shells                                     ... done
Starting the XC term evaluation                    ... done (   0.2 sec)
  promolecular density results
     # of electrons  =    111.991390612
     EX              =    -87.104712509
     EC              =     -3.737166260
     EX+EC           =    -90.841878769
Transforming the Hamiltonian                       ... done (   0.0 sec)
Diagonalizing the Hamiltonian                      ... done (   0.0 sec)
Back transforming the eigenvectors                 ... done (   0.0 sec)
Now organizing SCF variables                       ... done
                      ------------------
                      INITIAL GUESS DONE (   0.8 sec)
                      ------------------
-------------------
DFT GRID GENERATION
-------------------

General Integration Accuracy     IntAcc      ... 4.388
Radial Grid Type                 RadialGrid  ... OptM3 with GC (2021)
Angular Grid (max. ang.)         AngularGrid ... 4 (Lebedev-302)
Angular grid pruning method      GridPruning ... 4 (adaptive)
Weight generation scheme         WeightScheme... Becke
Basis function cutoff            BFCut       ... 1.0000e-10
Integration weight cutoff        WCut        ... 1.0000e-14
Angular grids for H and He will be reduced by one unit
Partially contracted basis set               ... off
Rotationally invariant grid construction     ... off

Total number of grid points                  ...   149209
Total number of batches                      ...     2350
Average number of points per batch           ...       63
Average number of grid points per atom       ...     4663
Time for grid setup =    0.885 sec

--------------------
COSX GRID GENERATION
--------------------

GRIDX 1
-------
General Integration Accuracy     IntAcc      ... 3.816
Radial Grid Type                 RadialGrid  ... OptM3 with GC (2021)
Angular Grid (max. ang.)         AngularGrid ... 1 (Lebedev-50)
Angular grid pruning method      GridPruning ... 4 (adaptive)
Weight generation scheme         WeightScheme... Becke
Basis function cutoff            BFCut       ... 1.0000e-10
Integration weight cutoff        WCut        ... 1.0000e-14
Angular grids for H and He will be reduced by one unit
Partially contracted basis set               ... on
Rotationally invariant grid construction     ... off

Total number of grid points                  ...    19026
Total number of batches                      ...      313
Average number of points per batch           ...       60
Average number of grid points per atom       ...      595
UseSFitting                                  ... on

GRIDX 2
-------
General Integration Accuracy     IntAcc      ... 4.020
Radial Grid Type                 RadialGrid  ... OptM3 with GC (2021)
Angular Grid (max. ang.)         AngularGrid ... 2 (Lebedev-110)
Angular grid pruning method      GridPruning ... 4 (adaptive)
Weight generation scheme         WeightScheme... Becke
Basis function cutoff            BFCut       ... 1.0000e-10
Integration weight cutoff        WCut        ... 1.0000e-14
Angular grids for H and He will be reduced by one unit
Partially contracted basis set               ... on
Rotationally invariant grid construction     ... off

Total number of grid points                  ...    43463
Total number of batches                      ...      692
Average number of points per batch           ...       62
Average number of grid points per atom       ...     1358
UseSFitting                                  ... on

GRIDX 3
-------
General Integration Accuracy     IntAcc      ... 4.338
Radial Grid Type                 RadialGrid  ... OptM3 with GC (2021)
Angular Grid (max. ang.)         AngularGrid ... 3 (Lebedev-194)
Angular grid pruning method      GridPruning ... 4 (adaptive)
Weight generation scheme         WeightScheme... Becke
Basis function cutoff            BFCut       ... 1.0000e-10
Integration weight cutoff        WCut        ... 1.0000e-14
Angular grids for H and He will be reduced by one unit
Partially contracted basis set               ... on
Rotationally invariant grid construction     ... off

Total number of grid points                  ...    93880
Total number of batches                      ...     1486
Average number of points per batch           ...       63
Average number of grid points per atom       ...     2934
UseSFitting                                  ... on

Time for X-Grid setup             =    1.222 sec

--------------
SCF ITERATIONS
--------------
ITER       Energy         Delta-E        Max-DP      RMS-DP      [F,P]     Damp
               ***  Starting incremental Fock matrix formation  ***
  0   -618.7293973350   0.00000000000013.21320708  0.09496506  0.1710390 0.7000
                      *** Initiating the SOSCF procedure ***
                      *** Re-Reading the Fockian *** 
                      *** Removing any level shift *** 
ITER      Energy       Delta-E        Grad      Rot      Max-DP    RMS-DP
  1   -618.90183707  -0.1724397317  0.003265  0.003265 71.283182  0.363977
               *** Restarting incremental Fock matrix formation ***
  2   -619.00684899  -0.1050119253  0.023863  0.037433 93.330638  0.502406
  3   -618.94472756   0.0621214346  0.024159  0.024311 115.270070  0.501611
  4   -619.11311677  -0.1683892112  0.006366  0.038342 52.990098  0.242293
  5   -619.10594485   0.0071719165  0.013847  0.027558 60.726468  0.271222
  6   -619.11603980  -0.0100949505  0.000946  0.003716 116.910256  0.632831
  7   -619.11588719   0.0001526172  0.001188  0.002330 53.442513  0.239399
  8   -619.11615510  -0.0002679171  0.000168  0.000589 42.775889  0.332076
  9   -619.11614715   0.0000079515  0.000272  0.000309 61.499877  0.495891
 10   -619.11614981  -0.0000026606  0.000182  0.000341 242.845668  1.239011
 11   -619.11614949   0.0000003177  0.000269  0.000182 83.319418  0.506959
 12   -619.11615226  -0.0000027612  0.000154  0.000448 65.519558  0.443220
 13   -619.11614430   0.0000079585  0.000244  0.000177 70.415077  0.402637
 14   -619.11615761  -0.0000133149  0.000203  0.000345 92.368622  0.646480
 15   -619.11614536   0.0000122503  0.000127  0.000104 56.301900  0.231639
 16   -619.11614833  -0.0000029651  0.000209  0.000328 121.151310  0.781715
 17   -619.11614889  -0.0000005647  0.000374  0.000259 70.885522  0.487174
 18   -619.11615065  -0.0000017587  0.000224  0.000526 824.561553  3.659616
 19   -619.11610154   0.0000491068  0.000369  0.000301 562.136751  2.483550

 WARNING: the maximum gradient error descreased on average only by a factor   0.9
          during the last 20 iterations

                      *** Initiating the TRAH-SCF procedure ***

              ***Rediagonalizing the Fockian in SOSCF/NRSCF***

TRAH GRIDX
----------

General Integration Accuracy     IntAcc      ... 3.067
Radial Grid Type                 RadialGrid  ... OptM3 with GC (2021)
Angular Grid (max. ang.)         AngularGrid ... 1 (Lebedev-50)
Angular grid pruning method      GridPruning ... 4 (adaptive)
Weight generation scheme         WeightScheme... Becke
Basis function cutoff            BFCut       ... 1.0000e-10
Integration weight cutoff        WCut        ... 1.0000e-14
Angular grids for H and He will be reduced by one unit
Partially contracted basis set               ... on
Rotationally invariant grid construction     ... off

Total number of grid points                  ...    10010
Total number of batches                      ...      175
Average number of points per batch           ...       57
Average number of grid points per atom       ...      313


TRAH GRID
---------

General Integration Accuracy     IntAcc      ... 3.467
Radial Grid Type                 RadialGrid  ... OptM3 with GC (2021)
Angular Grid (max. ang.)         AngularGrid ... 1 (Lebedev-50)
Angular grid pruning method      GridPruning ... 4 (adaptive)
Weight generation scheme         WeightScheme... Becke
Basis function cutoff            BFCut       ... 1.0000e-10
Integration weight cutoff        WCut        ... 1.0000e-14
Angular grids for H and He will be reduced by one unit
Partially contracted basis set               ... off
Rotationally invariant grid construction     ... off

Total number of grid points                  ...    21654
Total number of batches                      ...      351
Average number of points per batch           ...       61
Average number of grid points per atom       ...      677

 --------------------------------------------------------------------------------------------
   Iter.        energy            ||Error||_2        Shift      TRadius  Mac/Mic        Rej.
 --------------------------------------------------------------------------------------------
    0       -619.116139786576     1.393879e-02                     0.400 (TRAH MAcro)   No
    0     dE    -2.008409e-05     1.449571e-02    -4.0168e-05      0.003 (TRAH MIcro)
    0     dE    -2.597856e-05     7.352965e-04    -5.1956e-05      0.004 (TRAH MIcro)
    1       -619.116164459832     8.214995e-04                           (NR   MAcro)
    1     dE    -3.928443e-08     3.114586e-04                           (NR   MIcro)
    1     dE    -4.738778e-08     8.101189e-05                           (NR   MIcro)
    1     dE    -4.781750e-08     2.356184e-05                           (NR   MIcro)
    1     dE    -4.785997e-08     9.809255e-06                           (NR   MIcro)
    1     dE    -4.786719e-08     3.179987e-06                           (NR   MIcro)
    2       -619.116164498501     6.097036e-05                           (NR   MAcro)
    2     dE    -5.104354e-10     8.221044e-06                           (NR   MIcro)
    2     dE    -5.144141e-10     4.322725e-06                           (NR   MIcro)
    3       -619.116164497608     1.663150e-05                           (NR   MAcro)

               *****************************************************
               *                     SUCCESS                       *
               *           SCF CONVERGED AFTER  33 CYCLES          *
               *****************************************************


------------------------------------------------------------------------------
                          SCF STABILITY ANALYSIS                              
------------------------------------------------------------------------------


---------------
TD-DFT XC SETUP
---------------

DFT calculation                         ... on
Name of the grid file                   ... Hexahydropyrene_spectra.grid.tmp
Exchange functional (SCF)               ... B88
Exchange functional (TD-DFT)            ... B88
   X-Alpha parameter    XAlpha (SCF)    ...  0.666667
   X-Alpha parameter    XAlpha (TD-DFT) ...  0.666667
   Becke's b parameter  XBeta (SCF)     ...  0.004200
   Becke's b parameter  XBeta (TD-DFT)  ...  0.004200
Correlation functional (SCF)            ... LYP
Correlation functional (TD-DFT)         ... LYP
 LDA part of GGA corr.  LDAOpt (SCF)    ... VWN-5
 LDA part of GGA corr.  LDAOpt (TD-DFT) ... VWN-5
Hybrid DFT                              ... on
   Exchange mixing (SCF)                ...  0.200
   Exchange mixing (TD-DFT)             ...  0.200
   GGA exch. scaling(SCF)               ...  0.720
   GGA exch. scaling (TD-DFT)           ...  0.720
   GGA corr. scaling (SCF)              ...  0.810
   GGA corr. scaling (TD-DFT)           ...  0.810

Electron density on the grid   ... found on disk
Building xc-kernel on the grid ... done
                    *** TD-DFT CALCULATION INITIALIZED ***

                       ****Iteration    0****

   Memory handling for direct AO based CIS:
   Memory per vector needed      ...     5 MB
   Memory needed                 ...    35 MB
   Memory available              ...  5000 MB
   Number of vectors per batch   ...   835
   Number of batches             ...     1
   Time for densities:     0.031
   Time for XC-Integration:     5.670
   Time for K (COSX):    50.211
   Time for Sigma-Completion:     0.061
   Lowest Energy          :     0.099407989594
   Maximum Energy change  :     0.141210976788 (vector 2)
   Maximum residual norm  :     0.006206847263

                       ****Iteration    1****
   Time for densities:     0.019
   Time for XC-Integration:     3.206
   Time for K (COSX):    47.804
   Time for Sigma-Completion:     0.026
   Lowest Energy          :     0.070464866268
   Maximum Energy change  :     0.028943123326 (vector 0)
   Maximum residual norm  :     0.000925251114

                       ****Iteration    2****
   Time for densities:     0.015
   Time for XC-Integration:     3.305
   Time for K (COSX):    47.620
   Time for Sigma-Completion:     0.024
   Lowest Energy          :     0.066829075266
   Maximum Energy change  :     0.003635791002 (vector 0)
   Maximum residual norm  :     0.000457894915

                       ****Iteration    3****
   Time for densities:     0.016
   Time for XC-Integration:     3.395
   Time for K (COSX):    47.734
   Time for Sigma-Completion:     0.023
   Lowest Energy          :     0.066725304274
   Maximum Energy change  :     0.005526775066 (vector 2)
   Maximum residual norm  :     0.001398930291

                       ****Iteration    4****
   Time for densities:     0.017
   Time for XC-Integration:     3.471
   Time for K (COSX):    47.512
   Time for Sigma-Completion:     0.031
   Lowest Energy          :     0.066721748996
   Maximum Energy change  :     0.006185385432 (vector 1)
   Maximum residual norm  :     0.000392269778

                       ****Iteration    5****
   Time for densities:     0.024
   Time for XC-Integration:     3.518
   Time for K (COSX):    47.702
   Time for Sigma-Completion:     0.028
   Lowest Energy          :     0.066721497224
   Maximum Energy change  :     0.000802206773 (vector 1)
   Maximum residual norm  :     0.000053178299

                       ****Iteration    6****
   Time for densities:     0.015
   Time for XC-Integration:     3.493
   Time for K (COSX):    47.630
   Time for Sigma-Completion:     0.033
   Lowest Energy          :     0.066721480510
   Maximum Energy change  :     0.000114765935 (vector 1)
   Maximum residual norm  :     0.000004116117

      *** CONVERGENCE OF RESIDUAL NORM REACHED ***

----------------------------- 
SCF STABILITY ANALYSIS RESULT 
----------------------------- 

RHF/RKS->UHF/UKS - triplet - external

   Root    Eigenvalue (au) 
     0       0.066721 
     1       0.115911 
     2       0.124877 

Stability Analysis indicates a stable HF/KS wave function.


Total time for performing the stability analysis:   363.488sec

Old exchange energy                            =    -17.766101113 Eh
New exchange energy                            =    -17.766137455 Eh
Exchange energy change after final integration =     -0.000036342 Eh
Total energy after final integration           =   -619.116200840 Eh
Final COS-X integration done in                =    13.380 sec

----------------
TOTAL SCF ENERGY
----------------

Total Energy       :         -619.11620084 Eh          -16847.00831 eV

Components:
Nuclear Repulsion  :         1058.70918240 Eh           28808.94147 eV
Electronic Energy  :        -1677.82538324 Eh          -45655.94978 eV
One Electron Energy:        -2937.16130096 Eh          -79924.22227 eV
Two Electron Energy:         1259.33591772 Eh           34268.27249 eV
Max COSX asymmetry :            0.00009721 Eh               0.00265 eV

Virial components:
Potential Energy   :        -1235.75806445 Eh          -33626.68648 eV
Kinetic Energy     :          616.64186361 Eh           16779.67817 eV
Virial Ratio       :            2.00401260


DFT components:
N(Alpha)           :       56.000016687366 electrons
N(Beta)            :       56.000016687366 electrons
N(Total)           :      112.000033374731 electrons
E(X)               :      -70.495574284853 Eh       
E(C)               :       -4.407002019254 Eh       
E(XC)              :      -74.902576304107 Eh       
DFET-embed. en.    :        0.000000000000 Eh       

---------------
SCF CONVERGENCE
---------------

  Last Energy change         ...    8.9358e-10  Tolerance :   1.0000e-06
  Last Orbital Gradient      ...    1.6632e-05  Tolerance :   5.0000e-05
  Last Orbital Rotation      ...    1.7979e-05

             **** THE GBW FILE WAS UPDATED (Hexahydropyrene_spectra.gbw) ****
             **** DENSITY Hexahydropyrene_spectra.scfp WAS UPDATED ****
             **** ENERGY FILE WAS UPDATED (Hexahydropyrene_spectra.en.tmp) ****
             **** THE GBW FILE WAS UPDATED (Hexahydropyrene_spectra.gbw) ****
             **** DENSITY Hexahydropyrene_spectra.scfp WAS UPDATED ****
----------------
ORBITAL ENERGIES
----------------

  NO   OCC          E(Eh)            E(eV) 
   0   2.0000     -10.176472      -276.9159 
   1   2.0000     -10.176073      -276.9050 
   2   2.0000     -10.175624      -276.8928 
   3   2.0000     -10.174207      -276.8543 
   4   2.0000     -10.174029      -276.8494 
   5   2.0000     -10.173544      -276.8362 
   6   2.0000     -10.168973      -276.7118 
   7   2.0000     -10.168586      -276.7013 
   8   2.0000     -10.167802      -276.6800 
   9   2.0000     -10.167289      -276.6660 
  10   2.0000     -10.166380      -276.6413 
  11   2.0000     -10.166363      -276.6408 
  12   2.0000     -10.164939      -276.6021 
  13   2.0000     -10.164675      -276.5949 
  14   2.0000     -10.164653      -276.5943 
  15   2.0000     -10.163369      -276.5593 
  16   2.0000      -0.881378       -23.9835 
  17   2.0000      -0.838824       -22.8256 
  18   2.0000      -0.822329       -22.3767 
  19   2.0000      -0.787631       -21.4325 
  20   2.0000      -0.760175       -20.6854 
  21   2.0000      -0.740800       -20.1582 
  22   2.0000      -0.725518       -19.7423 
  23   2.0000      -0.703505       -19.1434 
  24   2.0000      -0.634414       -17.2633 
  25   2.0000      -0.620481       -16.8841 
  26   2.0000      -0.618881       -16.8406 
  27   2.0000      -0.603389       -16.4191 
  28   2.0000      -0.563547       -15.3349 
  29   2.0000      -0.545741       -14.8504 
  30   2.0000      -0.509288       -13.8584 
  31   2.0000      -0.494572       -13.4580 
  32   2.0000      -0.484482       -13.1834 
  33   2.0000      -0.470740       -12.8095 
  34   2.0000      -0.463356       -12.6086 
  35   2.0000      -0.446682       -12.1548 
  36   2.0000      -0.426405       -11.6031 
  37   2.0000      -0.421519       -11.4701 
  38   2.0000      -0.412170       -11.2157 
  39   2.0000      -0.407278       -11.0826 
  40   2.0000      -0.399921       -10.8824 
  41   2.0000      -0.391445       -10.6518 
  42   2.0000      -0.386499       -10.5172 
  43   2.0000      -0.381209       -10.3732 
  44   2.0000      -0.371198       -10.1008 
  45   2.0000      -0.360653        -9.8139 
  46   2.0000      -0.348961        -9.4957 
  47   2.0000      -0.344339        -9.3699 
  48   2.0000      -0.332626        -9.0512 
  49   2.0000      -0.331259        -9.0140 
  50   2.0000      -0.311742        -8.4829 
  51   2.0000      -0.302696        -8.2368 
  52   2.0000      -0.298648        -8.1266 
  53   2.0000      -0.268548        -7.3076 
  54   2.0000      -0.237138        -6.4528 
  55   2.0000      -0.206851        -5.6287 
  56   0.0000      -0.037755        -1.0274 
  57   0.0000      -0.015607        -0.4247 
  58   0.0000      -0.001088        -0.0296 
  59   0.0000       0.010830         0.2947 
  60   0.0000       0.010960         0.2982 
  61   0.0000       0.020228         0.5504 
  62   0.0000       0.025044         0.6815 
  63   0.0000       0.026853         0.7307 
  64   0.0000       0.031396         0.8543 
  65   0.0000       0.040688         1.1072 
  66   0.0000       0.047482         1.2921 
  67   0.0000       0.048028         1.3069 
  68   0.0000       0.049445         1.3455 
  69   0.0000       0.057690         1.5698 
  70   0.0000       0.066095         1.7985 
  71   0.0000       0.072236         1.9656 
  72   0.0000       0.076151         2.0722 
  73   0.0000       0.077470         2.1081 
  74   0.0000       0.079125         2.1531 
  75   0.0000       0.079414         2.1610 
  76   0.0000       0.084722         2.3054 
  77   0.0000       0.103694         2.8217 
  78   0.0000       0.104182         2.8349 
  79   0.0000       0.107076         2.9137 
  80   0.0000       0.110149         2.9973 
  81   0.0000       0.113021         3.0755 
  82   0.0000       0.118711         3.2303 
  83   0.0000       0.121704         3.3117 
  84   0.0000       0.125424         3.4130 
  85   0.0000       0.130478         3.5505 
  86   0.0000       0.136616         3.7175 
  87   0.0000       0.146944         3.9986 
  88   0.0000       0.148957         4.0533 
  89   0.0000       0.151418         4.1203 
  90   0.0000       0.154243         4.1972 
  91   0.0000       0.158603         4.3158 
  92   0.0000       0.160357         4.3635 
  93   0.0000       0.164652         4.4804 
  94   0.0000       0.167159         4.5486 
  95   0.0000       0.170298         4.6340 
  96   0.0000       0.179474         4.8837 
  97   0.0000       0.180045         4.8993 
  98   0.0000       0.182576         4.9681 
  99   0.0000       0.185293         5.0421 
 100   0.0000       0.191808         5.2194 
 101   0.0000       0.193799         5.2735 
 102   0.0000       0.196378         5.3437 
 103   0.0000       0.198547         5.4027 
 104   0.0000       0.201365         5.4794 
 105   0.0000       0.203518         5.5380 
 106   0.0000       0.207225         5.6389 
 107   0.0000       0.210130         5.7179 
 108   0.0000       0.212391         5.7795 
 109   0.0000       0.215524         5.8647 
 110   0.0000       0.219107         5.9622 
 111   0.0000       0.220564         6.0018 
 112   0.0000       0.227054         6.1785 
 113   0.0000       0.227716         6.1965 
 114   0.0000       0.231745         6.3061 
 115   0.0000       0.234041         6.3686 
 116   0.0000       0.235817         6.4169 
 117   0.0000       0.240115         6.5339 
 118   0.0000       0.244848         6.6626 
 119   0.0000       0.246111         6.6970 
 120   0.0000       0.246505         6.7077 
 121   0.0000       0.251856         6.8534 
 122   0.0000       0.255325         6.9478 
 123   0.0000       0.258408         7.0316 
 124   0.0000       0.265650         7.2287 
 125   0.0000       0.269665         7.3380 
 126   0.0000       0.271324         7.3831 
 127   0.0000       0.274509         7.4698 
 128   0.0000       0.281297         7.6545 
 129   0.0000       0.282834         7.6963 
 130   0.0000       0.288646         7.8545 
 131   0.0000       0.291998         7.9457 
 132   0.0000       0.299149         8.1403 
 133   0.0000       0.301066         8.1924 
 134   0.0000       0.303919         8.2700 
 135   0.0000       0.310266         8.4428 
 136   0.0000       0.312599         8.5063 
 137   0.0000       0.316541         8.6135 
 138   0.0000       0.324063         8.8182 
 139   0.0000       0.327657         8.9160 
 140   0.0000       0.336586         9.1590 
 141   0.0000       0.341526         9.2934 
 142   0.0000       0.347830         9.4649 
 143   0.0000       0.351379         9.5615 
 144   0.0000       0.354671         9.6511 
 145   0.0000       0.366989         9.9863 
 146   0.0000       0.373183        10.1548 
 147   0.0000       0.374402        10.1880 
 148   0.0000       0.392206        10.6725 
 149   0.0000       0.400207        10.8902 
 150   0.0000       0.406034        11.0488 
 151   0.0000       0.414910        11.2903 
 152   0.0000       0.427703        11.6384 
 153   0.0000       0.428814        11.6686 
 154   0.0000       0.437411        11.9026 
 155   0.0000       0.445377        12.1193 
 156   0.0000       0.453304        12.3350 
 157   0.0000       0.464433        12.6379 
 158   0.0000       0.479155        13.0385 
 159   0.0000       0.490829        13.3561 
 160   0.0000       0.500902        13.6302 
 161   0.0000       0.513938        13.9850 
 162   0.0000       0.523236        14.2380 
 163   0.0000       0.532021        14.4770 
 164   0.0000       0.538566        14.6551 
 165   0.0000       0.546016        14.8579 
 166   0.0000       0.550067        14.9681 
 167   0.0000       0.552118        15.0239 
 168   0.0000       0.563251        15.3268 
 169   0.0000       0.569309        15.4917 
 170   0.0000       0.573477        15.6051 
 171   0.0000       0.579563        15.7707 
 172   0.0000       0.586730        15.9657 
 173   0.0000       0.587928        15.9983 
 174   0.0000       0.601465        16.3667 
 175   0.0000       0.609768        16.5926 
 176   0.0000       0.614885        16.7319 
 177   0.0000       0.622044        16.9267 
 178   0.0000       0.630340        17.1524 
 179   0.0000       0.634186        17.2571 
 180   0.0000       0.638864        17.3844 
 181   0.0000       0.649201        17.6657 
 182   0.0000       0.659193        17.9375 
 183   0.0000       0.661805        18.0086 
 184   0.0000       0.665559        18.1108 
 185   0.0000       0.674667        18.3586 
 186   0.0000       0.676629        18.4120 
 187   0.0000       0.684550        18.6276 
 188   0.0000       0.696208        18.9448 
 189   0.0000       0.699541        19.0355 
 190   0.0000       0.704955        19.1828 
 191   0.0000       0.708961        19.2918 
 192   0.0000       0.714533        19.4434 
 193   0.0000       0.715885        19.4802 
 194   0.0000       0.719238        19.5715 
 195   0.0000       0.726665        19.7736 
 196   0.0000       0.732045        19.9200 
 197   0.0000       0.736190        20.0328 
 198   0.0000       0.743362        20.2279 
 199   0.0000       0.744917        20.2702 
 200   0.0000       0.750613        20.4252 
 201   0.0000       0.759761        20.6742 
 202   0.0000       0.762586        20.7510 
 203   0.0000       0.766774        20.8650 
 204   0.0000       0.774004        21.0617 
 205   0.0000       0.778611        21.1871 
 206   0.0000       0.784216        21.3396 
 207   0.0000       0.791435        21.5361 
 208   0.0000       0.796753        21.6808 
 209   0.0000       0.811538        22.0831 
 210   0.0000       0.821669        22.3587 
 211   0.0000       0.846549        23.0358 
 212   0.0000       0.860894        23.4261 
 213   0.0000       0.866220        23.5710 
 214   0.0000       0.889734        24.2109 
 215   0.0000       0.908769        24.7289 
 216   0.0000       0.913442        24.8560 
 217   0.0000       0.916165        24.9301 
 218   0.0000       0.926994        25.2248 
 219   0.0000       0.938043        25.5255 
 220   0.0000       0.946844        25.7649 
 221   0.0000       0.952929        25.9305 
 222   0.0000       0.958025        26.0692 
 223   0.0000       0.971943        26.4479 
 224   0.0000       0.978342        26.6220 
 225   0.0000       0.990895        26.9636 
 226   0.0000       0.998606        27.1735 
 227   0.0000       1.016572        27.6623 
 228   0.0000       1.022617        27.8268 
 229   0.0000       1.028774        27.9944 
 230   0.0000       1.037901        28.2427 
 231   0.0000       1.047631        28.5075 
 232   0.0000       1.069033        29.0899 
 233   0.0000       1.075328        29.2612 
 234   0.0000       1.092534        29.7294 
 235   0.0000       1.099470        29.9181 
 236   0.0000       1.115666        30.3588 
 237   0.0000       1.116454        30.3802 
 238   0.0000       1.124108        30.5885 
 239   0.0000       1.141303        31.0564 
 240   0.0000       1.161770        31.6134 
 241   0.0000       1.167151        31.7598 
 242   0.0000       1.185380        32.2558 
 243   0.0000       1.213525        33.0217 
 244   0.0000       1.223871        33.3032 
 245   0.0000       1.245482        33.8913 
 246   0.0000       1.265842        34.4453 
 247   0.0000       1.289635        35.0928 
 248   0.0000       1.346413        36.6378 
 249   0.0000       1.368649        37.2428 
 250   0.0000       1.387009        37.7424 
 251   0.0000       1.389288        37.8044 
 252   0.0000       1.398872        38.0652 
 253   0.0000       1.417163        38.5630 
 254   0.0000       1.424927        38.7742 
 255   0.0000       1.445134        39.3241 
 256   0.0000       1.452161        39.5153 
 257   0.0000       1.460710        39.7479 
 258   0.0000       1.488902        40.5151 
 259   0.0000       1.497524        40.7497 
 260   0.0000       1.509146        41.0660 
 261   0.0000       1.518329        41.3158 
 262   0.0000       1.525422        41.5088 
 263   0.0000       1.530131        41.6370 
 264   0.0000       1.549652        42.1682 
 265   0.0000       1.552102        42.2348 
 266   0.0000       1.561390        42.4876 
 267   0.0000       1.574174        42.8354 
 268   0.0000       1.575109        42.8609 
 269   0.0000       1.588117        43.2149 
 270   0.0000       1.589992        43.2659 
 271   0.0000       1.592440        43.3325 
 272   0.0000       1.608096        43.7585 
 273   0.0000       1.609525        43.7974 
 274   0.0000       1.621130        44.1132 
 275   0.0000       1.626900        44.2702 
 276   0.0000       1.634366        44.4734 
 277   0.0000       1.642119        44.6843 
 278   0.0000       1.656535        45.0766 
 279   0.0000       1.662200        45.2308 
 280   0.0000       1.669708        45.4351 
 281   0.0000       1.683502        45.8104 
 282   0.0000       1.702570        46.3293 
 283   0.0000       1.709740        46.5244 
 284   0.0000       1.726373        46.9770 
 285   0.0000       1.731557        47.1181 
 286   0.0000       1.734635        47.2018 
 287   0.0000       1.742009        47.4025 
 288   0.0000       1.755455        47.7684 
 289   0.0000       1.758262        47.8447 
 290   0.0000       1.767456        48.0949 
 291   0.0000       1.775372        48.3103 
 292   0.0000       1.790539        48.7230 
 293   0.0000       1.802147        49.0389 
 294   0.0000       1.804565        49.1047 
 295   0.0000       1.816974        49.4424 
 296   0.0000       1.828033        49.7433 
 297   0.0000       1.845053        50.2064 
 298   0.0000       1.853347        50.4321 
 299   0.0000       1.869252        50.8649 
 300   0.0000       1.891214        51.4626 
 301   0.0000       1.909139        51.9503 
 302   0.0000       1.912365        52.0381 
 303   0.0000       1.915047        52.1111 
 304   0.0000       1.920059        52.2475 
 305   0.0000       1.937802        52.7303 
 306   0.0000       1.944469        52.9117 
 307   0.0000       1.959600        53.3234 
 308   0.0000       1.970679        53.6249 
 309   0.0000       1.980703        53.8977 
 310   0.0000       1.988356        54.1059 
 311   0.0000       1.999683        54.4142 
 312   0.0000       2.016297        54.8662 
 313   0.0000       2.019064        54.9415 
 314   0.0000       2.039383        55.4944 
 315   0.0000       2.057656        55.9917 
 316   0.0000       2.069977        56.3269 
 317   0.0000       2.074450        56.4486 
 318   0.0000       2.104617        57.2695 
 319   0.0000       2.111990        57.4702 
 320   0.0000       2.124673        57.8153 
 321   0.0000       2.149411        58.4885 
 322   0.0000       2.156098        58.6704 
 323   0.0000       2.174623        59.1745 
 324   0.0000       2.182849        59.3983 
 325   0.0000       2.192482        59.6605 
 326   0.0000       2.204247        59.9806 
 327   0.0000       2.224583        60.5340 
 328   0.0000       2.230929        60.7067 
 329   0.0000       2.248381        61.1816 
 330   0.0000       2.267737        61.7083 
 331   0.0000       2.280275        62.0494 
 332   0.0000       2.281659        62.0871 
 333   0.0000       2.311667        62.9037 
 334   0.0000       2.316607        63.0381 
 335   0.0000       2.330711        63.4219 
 336   0.0000       2.361107        64.2490 
 337   0.0000       2.378059        64.7103 
 338   0.0000       2.393529        65.1312 
 339   0.0000       2.430587        66.1396 
 340   0.0000       2.433218        66.2112 
 341   0.0000       2.448287        66.6213 
 342   0.0000       2.462110        66.9974 
 343   0.0000       2.469031        67.1857 
 344   0.0000       2.474886        67.3451 
 345   0.0000       2.500459        68.0409 
 346   0.0000       2.511378        68.3381 
 347   0.0000       2.528124        68.7937 
 348   0.0000       2.552482        69.4566 
 349   0.0000       2.566704        69.8436 
 350   0.0000       2.579165        70.1826 
 351   0.0000       2.592190        70.5371 
 352   0.0000       2.615256        71.1647 
 353   0.0000       2.626999        71.4843 
 354   0.0000       2.660685        72.4009 
 355   0.0000       2.661676        72.4279 
 356   0.0000       2.678910        72.8968 
 357   0.0000       2.695081        73.3369 
 358   0.0000       2.701148        73.5020 
 359   0.0000       2.709941        73.7412 
 360   0.0000       2.717685        73.9520 
 361   0.0000       2.720099        74.0177 
 362   0.0000       2.734369        74.4060 
 363   0.0000       2.742649        74.6313 
 364   0.0000       2.755039        74.9684 
 365   0.0000       2.760086        75.1057 
 366   0.0000       2.768906        75.3458 
 367   0.0000       2.778601        75.6096 
 368   0.0000       2.783678        75.7477 
 369   0.0000       2.791934        75.9724 
 370   0.0000       2.803379        76.2838 
 371   0.0000       2.813046        76.5469 
 372   0.0000       2.817664        76.6725 
 373   0.0000       2.831121        77.0387 
 374   0.0000       2.838598        77.2422 
 375   0.0000       2.843547        77.3769 
 376   0.0000       2.856200        77.7212 
 377   0.0000       2.876552        78.2749 
 378   0.0000       2.884914        78.5025 
 379   0.0000       2.896236        78.8106 
 380   0.0000       2.904739        79.0420 
 381   0.0000       2.935483        79.8786 
 382   0.0000       2.949853        80.2696 
 383   0.0000       2.961414        80.5842 
 384   0.0000       2.973563        80.9148 
 385   0.0000       2.986716        81.2727 
 386   0.0000       3.002584        81.7045 
 387   0.0000       3.039627        82.7125 
 388   0.0000       3.051651        83.0396 
 389   0.0000       3.065743        83.4231 
 390   0.0000       3.085747        83.9674 
 391   0.0000       3.112352        84.6914 
 392   0.0000       3.131976        85.2254 
 393   0.0000       3.158862        85.9570 
 394   0.0000       3.179407        86.5161 
 395   0.0000       3.229387        87.8761 
 396   0.0000       3.250773        88.4580 
 397   0.0000       3.275383        89.1277 
 398   0.0000       3.288305        89.4793 
 399   0.0000       3.334370        90.7328 
 400   0.0000       3.396533        92.4244 
 401   0.0000       3.412330        92.8542 
 402   0.0000       3.430262        93.3422 
 403   0.0000       3.453760        93.9816 
 404   0.0000       3.489266        94.9478 
 405   0.0000       3.506142        95.4070 
 406   0.0000       3.544034        96.4381 
 407   0.0000       3.561300        96.9079 
 408   0.0000       3.613290        98.3226 
 409   0.0000       3.647890        99.2641 
 410   0.0000       3.707654       100.8904 
 411   0.0000       3.756710       102.2253 
 412   0.0000       3.790999       103.1583 
 413   0.0000       3.803000       103.4849 
 414   0.0000       3.831940       104.2724 
 415   0.0000       3.857423       104.9658 
 416   0.0000       3.885675       105.7346 
 417   0.0000       3.928251       106.8932 
 418   0.0000       4.021633       109.4342 
 419   0.0000       4.064185       110.5921 
 420   0.0000       4.107968       111.7835 
 421   0.0000       4.136500       112.5599 
 422   0.0000       4.175312       113.6160 
 423   0.0000       4.181880       113.7947 
 424   0.0000       4.208111       114.5085 
 425   0.0000       4.316463       117.4569 
 426   0.0000       4.337318       118.0244 
 427   0.0000       4.414620       120.1279 
 428   0.0000       4.495581       122.3310 
 429   0.0000       4.529278       123.2479 
 430   0.0000       4.854596       132.1003 
 431   0.0000       4.879856       132.7876 
 432   0.0000      23.523879       640.1173 
 433   0.0000      23.794080       647.4698 
 434   0.0000      23.861783       649.3121 
 435   0.0000      23.879746       649.8009 
 436   0.0000      23.912819       650.7009 
 437   0.0000      23.928262       651.1211 
 438   0.0000      23.942312       651.5034 
 439   0.0000      23.958923       651.9554 
 440   0.0000      23.975537       652.4075 
 441   0.0000      23.978453       652.4869 
 442   0.0000      23.994154       652.9141 
 443   0.0000      24.028750       653.8555 
 444   0.0000      24.114143       656.1792 
 445   0.0000      24.132050       656.6665 
 446   0.0000      24.203088       658.5995 
 447   0.0000      24.210134       658.7912 

                    ********************************
                    * MULLIKEN POPULATION ANALYSIS *
                    ********************************

-----------------------
MULLIKEN ATOMIC CHARGES
-----------------------
   0 C :   -0.221864
   1 C :   -0.348174
   2 C :   -0.558802
   3 C :    0.019578
   4 C :   -0.715963
   5 C :    0.310005
   6 C :    1.336767
   7 C :   -0.599865
   8 C :    0.158945
   9 C :   -0.554519
  10 C :    0.668981
  11 C :    0.121630
  12 C :   -0.693814
  13 C :    1.069564
  14 C :   -1.542036
  15 C :   -0.725705
  16 H :    0.161191
  17 H :    0.174305
  18 H :    0.148375
  19 H :    0.147771
  20 H :    0.139624
  21 H :    0.137148
  22 H :    0.168696
  23 H :    0.146935
  24 H :    0.133834
  25 H :    0.148426
  26 H :    0.173249
  27 H :    0.117282
  28 H :    0.121367
  29 H :    0.118866
  30 H :    0.118512
  31 H :    0.119693
Sum of atomic charges:   -0.0000000

--------------------------------
MULLIKEN REDUCED ORBITAL CHARGES
--------------------------------
  0 C s       :     3.147769  s :     3.147769
      pz      :     1.103933  p :     3.014128
      px      :     0.907228
      py      :     1.002968
      dz2     :     0.012023  d :     0.059967
      dxz     :     0.009255
      dyz     :     0.011779
      dx2y2   :     0.015352
      dxy     :     0.011558
  1 C s       :     3.320957  s :     3.320957
      pz      :     1.038320  p :     2.967731
      px      :     1.009825
      py      :     0.919585
      dz2     :     0.017657  d :     0.059486
      dxz     :     0.004689
      dyz     :     0.009705
      dx2y2   :     0.016153
      dxy     :     0.011281
  2 C s       :     3.435459  s :     3.435459
      pz      :     1.025814  p :     3.063730
      px      :     1.007186
      py      :     1.030730
      dz2     :     0.018437  d :     0.059613
      dxz     :     0.007805
      dyz     :     0.006067
      dx2y2   :     0.012688
      dxy     :     0.014616
  3 C s       :     2.437935  s :     2.437935
      pz      :     1.053765  p :     3.468948
      px      :     1.266431
      py      :     1.148753
      dz2     :     0.019481  d :     0.073538
      dxz     :     0.009655
      dyz     :     0.010650
      dx2y2   :     0.015732
      dxy     :     0.018020
  4 C s       :     3.534202  s :     3.534202
      pz      :     1.040266  p :     3.122157
      px      :     0.979916
      py      :     1.101975
      dz2     :     0.017930  d :     0.059605
      dxz     :     0.009140
      dyz     :     0.006118
      dx2y2   :     0.011611
      dxy     :     0.014807
  5 C s       :     2.780551  s :     2.780551
      pz      :     1.084405  p :     2.849496
      px      :     0.914553
      py      :     0.850538
      dz2     :     0.013877  d :     0.059948
      dxz     :     0.009211
      dyz     :     0.009768
      dx2y2   :     0.010893
      dxy     :     0.016199
  6 C s       :     1.714377  s :     1.714377
      pz      :     0.946372  p :     2.877114
      px      :     0.729226
      py      :     1.201516
      dz2     :     0.004310  d :     0.071742
      dxz     :     0.011536
      dyz     :     0.009123
      dx2y2   :     0.022276
      dxy     :     0.024497
  7 C s       :     3.850513  s :     3.850513
      pz      :     1.019862  p :     2.691054
      px      :     0.756976
      py      :     0.914216
      dz2     :     0.003963  d :     0.058297
      dxz     :     0.009158
      dyz     :     0.005240
      dx2y2   :     0.018094
      dxy     :     0.021843
  8 C s       :     2.977614  s :     2.977614
      pz      :     0.982325  p :     2.803966
      px      :     0.990703
      py      :     0.830938
      dz2     :     0.003866  d :     0.059475
      dxz     :     0.003536
      dyz     :     0.011723
      dx2y2   :     0.023192
      dxy     :     0.017157
  9 C s       :     3.725211  s :     3.725211
      pz      :     1.021079  p :     2.770770
      px      :     0.915467
      py      :     0.834224
      dz2     :     0.003934  d :     0.058538
      dxz     :     0.008764
      dyz     :     0.005954
      dx2y2   :     0.019815
      dxy     :     0.020070
 10 C s       :     1.513018  s :     1.513018
      pz      :     0.901715  p :     3.744045
      px      :     1.053843
      py      :     1.788488
      dz2     :     0.004419  d :     0.073956
      dxz     :     0.011080
      dyz     :     0.010038
      dx2y2   :     0.023675
      dxy     :     0.024744
 11 C s       :     3.214793  s :     3.214793
      pz      :     1.010163  p :     2.604670
      px      :     0.687044
      py      :     0.907463
      dz2     :     0.003929  d :     0.058907
      dxz     :     0.010331
      dyz     :     0.004667
      dx2y2   :     0.017196
      dxy     :     0.022783
 12 C s       :     3.976773  s :     3.976773
      pz      :     1.005791  p :     2.658293
      px      :     0.695314
      py      :     0.957188
      dz2     :     0.003947  d :     0.058748
      dxz     :     0.009652
      dyz     :     0.005212
      dx2y2   :     0.017179
      dxy     :     0.022757
 13 C s       :     1.641266  s :     1.641266
      pz      :     0.952966  p :     3.217581
      px      :     1.085458
      py      :     1.179157
      dz2     :     0.004338  d :     0.071590
      dxz     :     0.009567
      dyz     :     0.011163
      dx2y2   :     0.023597
      dxy     :     0.022924
 14 C s       :     5.377173  s :     5.377173
      pz      :     0.954142  p :     2.095240
      px      :    -0.219737
      py      :     1.360836
      dz2     :     0.004542  d :     0.069623
      dxz     :     0.009574
      dyz     :     0.010360
      dx2y2   :     0.023511
      dxy     :     0.021636
 15 C s       :     4.166205  s :     4.166205
      pz      :     0.910752  p :     2.488243
      px      :    -0.028928
      py      :     1.606419
      dz2     :     0.004501  d :     0.071257
      dxz     :     0.010708
      dyz     :     0.009358
      dx2y2   :     0.023082
      dxy     :     0.023608
 16 H s       :     0.816236  s :     0.816236
      pz      :     0.007745  p :     0.022572
      px      :     0.005544
      py      :     0.009283
 17 H s       :     0.803425  s :     0.803425
      pz      :     0.011776  p :     0.022270
      px      :     0.005303
      py      :     0.005190
 18 H s       :     0.829287  s :     0.829287
      pz      :     0.005363  p :     0.022338
      px      :     0.012334
      py      :     0.004641
 19 H s       :     0.830282  s :     0.830282
      pz      :     0.012701  p :     0.021947
      px      :     0.004607
      py      :     0.004640
 20 H s       :     0.838661  s :     0.838661
      pz      :     0.012642  p :     0.021715
      px      :     0.004504
      py      :     0.004569
 21 H s       :     0.840652  s :     0.840652
      pz      :     0.005037  p :     0.022200
      px      :     0.006599
      py      :     0.010564
 22 H s       :     0.810027  s :     0.810027
      pz      :     0.012306  p :     0.021278
      px      :     0.004078
      py      :     0.004893
 23 H s       :     0.831335  s :     0.831335
[...]
 761  104597.3     95.6      3.53214   0.06090  -0.04793  -0.03854
 762  104610.3     95.6      1.00312  -0.00985   0.13459   0.01676
 763  104638.4     95.6     -2.71321  -0.02667  -0.05385   0.28183
 764  104659.6     95.5      1.63616  -0.08191   0.13685   0.37263
 765  104684.1     95.5     -0.37385   0.01050   0.00223  -0.14802
 766  104696.7     95.5      8.28251  -0.03498  -0.07173   0.12979
 767  104737.2     95.5      8.09959  -0.05794   0.00685   0.43291
 768  104750.7     95.5     -2.48388   0.00130  -0.06887   0.12408
 769  104813.3     95.4      4.92579   0.08924   0.04218  -0.32207
 770  104851.1     95.4      1.77137  -0.03938  -0.17686   0.07586
 771  104897.1     95.3      6.54523  -0.10677   0.01151  -0.10821
 772  104907.1     95.3      0.86606  -0.08910  -0.08129  -0.16012
 773  104954.7     95.3     -7.58258   0.04203  -0.01433   0.46480
 774  104994.7     95.2     -0.53016  -0.03174  -0.05231   0.39192
 775  105054.5     95.2     -7.00963  -0.05218  -0.15916  -0.22326
 776  105083.1     95.2     -4.86583   0.01435  -0.12037   0.00122
 777  105109.6     95.1      0.31599   0.04831   0.03428   0.07466
 778  105116.8     95.1     -0.02786   0.06108   0.09172  -0.16979
 779  105166.8     95.1      9.37982  -0.10220  -0.16263  -0.02882
 780  105189.0     95.1      0.74673  -0.00317  -0.09435  -0.07420
 781  105259.1     95.0    -19.76368   0.03628   0.05323  -0.41256
 782  105271.2     95.0      6.46482   0.05224   0.09670   0.13315
 783  105314.2     95.0     -0.92409  -0.08771  -0.04596   0.02998
 784  105337.2     94.9     -1.21936  -0.21917  -0.10384  -0.24601
 785  105395.0     94.9     -0.43799   0.03326  -0.03262   0.06436
 786  105395.5     94.9      2.08065  -0.00359   0.09396  -0.08529
 787  105429.9     94.8    -10.84342   0.00632   0.23599  -0.07377
 788  105462.0     94.8     -1.85745   0.06942   0.06639   0.11221
 789  105501.1     94.8      5.81766   0.07287  -0.11615  -0.39913
 790  105538.8     94.8     -4.10492   0.04537   0.07075  -0.20422
 791  105587.4     94.7     -3.77450   0.08274   0.18485   0.19950
 792  105614.4     94.7      1.93164  -0.13264   0.05959  -0.26955
 793  105636.1     94.7      7.31308   0.09904   0.07260  -0.50646
 794  105665.1     94.6     -4.38756   0.05078  -0.17821   0.30698
 795  105698.5     94.6     -0.97200   0.03011  -0.12544  -0.12284
 796  105725.8     94.6     -7.33795  -0.02281   0.20338  -0.12270
 797  105778.1     94.5    -11.02882   0.10853   0.12367   0.16486
 798  105795.5     94.5     -9.66610   0.01826  -0.04758  -0.34353
 799  105845.0     94.5      1.33664  -0.10788  -0.04748  -0.13692
 800  105886.6     94.4     12.34149   0.10657   0.11416  -0.14947
 801  105919.5     94.4     -8.87842   0.12169  -0.24663   0.04145
 802  105948.1     94.4     -9.77038  -0.21377  -0.14256   0.03630
 803  105963.7     94.4      1.87709   0.03058   0.00978   0.33579
 804  105970.1     94.4     -3.09806  -0.01131   0.04871   0.18649
 805  106038.8     94.3     -1.99204   0.25099   0.15407   0.18512
 806  106073.1     94.3    -10.35888   0.08840   0.22444   0.06274
 807  106095.6     94.3     -2.93746   0.01035   0.09695   0.56428
 808  106136.3     94.2     -1.86509   0.03687   0.14024  -0.17654
 809  106172.7     94.2     -1.08899  -0.22224  -0.18323  -0.17132
 810  106204.4     94.2      0.79358  -0.00111   0.08143   0.31563
 811  106225.8     94.1      6.94079  -0.08713  -0.01864   0.30498
 812  106243.9     94.1     -4.11641   0.02830  -0.04507   0.32567
 813  106286.4     94.1      3.92069   0.06839   0.10641   0.07705
 814  106315.4     94.1     -5.92170  -0.18998  -0.04848   0.31241
 815  106366.3     94.0      3.17861   0.02251  -0.13887  -0.00298
 816  106424.0     94.0     -2.81135   0.05896   0.06579   0.15462
 817  106449.7     93.9     -2.15957   0.01544   0.06173   0.08250
 818  106453.7     93.9    -10.09849  -0.04538   0.02641  -0.22365
 819  106506.9     93.9     -1.63988   0.06006  -0.01460   0.00372
 820  106528.1     93.9      2.52490  -0.01361  -0.06600   0.17479
 821  106560.8     93.8     18.57616  -0.03362   0.09371   0.21785
 822  106599.1     93.8     -0.85877  -0.11887   0.16606  -0.07729
 823  106615.0     93.8      2.29565   0.00686   0.20267  -0.14717
 824  106647.7     93.8      5.17447  -0.00731  -0.00342  -0.11880
 825  106693.4     93.7      7.34025  -0.02854   0.10440   0.10622
 826  106738.9     93.7      4.25816  -0.00846   0.06698  -0.25338
 827  106791.6     93.6     -5.41887   0.05245  -0.02356  -0.25434
 828  106802.9     93.6     -3.22582   0.05436   0.00570  -0.08288
 829  106836.6     93.6    -12.51186   0.07306  -0.03657   0.29655
 830  106855.8     93.6     -1.64805   0.04880   0.03816   0.07968
 831  106873.0     93.6      9.79876  -0.10534  -0.10212  -0.36076
 832  106931.0     93.5     -8.71837   0.02249   0.00765   0.33308
 833  106979.5     93.5     12.47115   0.04517   0.12705  -0.28637
 834  107000.8     93.5     -7.35095   0.18109   0.01417   0.06687
 835  107037.0     93.4      6.47296  -0.10174   0.01729  -0.30955
 836  107076.6     93.4      0.09578  -0.00818   0.01834  -0.00732
 837  107102.7     93.4     -0.57791  -0.07712  -0.02915  -0.06921
 838  107126.2     93.3     -9.45127   0.13715   0.20085   0.11464
 839  107169.4     93.3      3.58240   0.10807   0.16403  -0.32533
 840  107218.8     93.3     -7.35436   0.02850   0.11873   0.17006
 841  107235.5     93.3    -10.12173   0.08551  -0.09342   0.39213
 842  107278.9     93.2     -3.96284   0.15284   0.01657  -0.10226
 843  107288.2     93.2     -1.27267   0.10984  -0.00284   0.19168
 844  107331.9     93.2     -5.57388   0.06913   0.00774   0.06907
 845  107349.6     93.2      0.75136   0.01283   0.05514  -0.16211
 846  107373.8     93.1      0.11068  -0.02671   0.06486   0.01595
 847  107403.4     93.1     -7.49018   0.09980   0.09518   0.06897
 848  107443.1     93.1     -4.69460   0.03566   0.08064   0.40749
 849  107492.8     93.0     12.20880   0.02853  -0.06278  -0.18968
 850  107521.6     93.0     -2.79065  -0.01034   0.05597   0.03082
 851  107589.4     92.9      0.39185  -0.08855  -0.05827  -0.06796
 852  107607.4     92.9     -6.94318  -0.09066   0.07271  -0.10805
 853  107627.8     92.9      3.30871  -0.02886   0.05585  -0.22363
 854  107640.6     92.9      4.07137   0.04113   0.06895  -0.06333
 855  107689.5     92.9      8.81338  -0.08442  -0.20744   0.26742
 856  107730.0     92.8     -0.57239  -0.00091   0.02717  -0.03305
 857  107804.5     92.8     11.14859   0.06993   0.13296   0.17063
 858  107856.3     92.7     -5.56658  -0.04756   0.09631   0.20531
 859  107874.0     92.7     -2.19336  -0.06534   0.07802  -0.00248
 860  107942.0     92.6     -3.19134   0.02392   0.07642  -0.11498
 861  107944.2     92.6      1.82656  -0.01018   0.07014   0.05143
 862  107971.3     92.6     -2.36850   0.06162   0.08022  -0.26861
 863  108026.8     92.6     -4.07629  -0.06789  -0.12211  -0.10766
 864  108059.6     92.5     -3.78196  -0.08979   0.05715   0.10667
 865  108067.9     92.5     -7.37595   0.03542  -0.12400  -0.14472
 866  108131.0     92.5      2.40216   0.05792  -0.07472  -0.05824
 867  108146.8     92.5      5.80825  -0.09312  -0.10347   0.11645
 868  108178.6     92.4      2.24683   0.02155   0.06794  -0.05761
 869  108212.4     92.4      1.33660  -0.07519   0.13500   0.29044
 870  108269.7     92.4    -10.07354  -0.01898  -0.15468  -0.24587
 871  108302.3     92.3     -5.79604   0.06151   0.04145  -0.64573
 872  108368.0     92.3     -4.93023   0.09311  -0.08703  -0.32820
 873  108385.5     92.3      1.41299   0.05048   0.00740  -0.09995
 874  108413.8     92.2     -0.24165  -0.01802  -0.01138   0.07100
 875  108443.2     92.2     -8.24690   0.04766  -0.32497   0.11049
 876  108512.5     92.2     -0.90395   0.00702  -0.04711  -0.34360
 877  108531.1     92.1     -1.61578   0.04087  -0.14341  -0.13524
 878  108544.7     92.1      2.24983  -0.05389   0.09248  -0.15925
 879  108553.6     92.1      3.27238   0.04638   0.13059  -0.40029
 880  108614.9     92.1     -1.40776  -0.00482  -0.08651  -0.01537
 881  108659.7     92.0      0.48946  -0.02071  -0.18627  -0.07115
 882  108675.2     92.0     -1.10826  -0.04117   0.07115   0.08834
 883  108739.1     92.0      3.34805   0.03099   0.13064  -0.02916
 884  108742.9     92.0      0.21876   0.03069  -0.00953   0.06632
 885  108804.1     91.9      3.06536   0.05114   0.05506   0.12203
 886  108828.6     91.9     -3.57411  -0.01664  -0.04747  -0.20481
 887  108860.9     91.9     11.07960  -0.07797   0.02676   0.19672
 888  108915.7     91.8      9.61726   0.15154  -0.01052   0.13914
 889  108961.2     91.8     -2.99741  -0.05554   0.12099  -0.01930
 890  108985.0     91.8      2.31207   0.07380  -0.00791  -0.26382
 891  109033.2     91.7      0.25654   0.04007  -0.04146   0.07225
 892  109041.5     91.7      4.96781   0.03921  -0.01063  -0.26873
 893  109073.9     91.7      9.85381  -0.07709   0.07142   0.17332
 894  109143.0     91.6      6.08889   0.05407   0.04771  -0.14285
 895  109160.3     91.6      0.33974   0.00998   0.00047  -0.05199
 896  109177.1     91.6     -9.13249  -0.10869  -0.03294  -0.24251
 897  109213.7     91.6     -0.37681  -0.06497   0.05496  -0.15772
 898  109242.7     91.5     -3.42523  -0.00933  -0.01634   0.22385
 899  109257.3     91.5     -2.37680   0.07529  -0.04573  -0.00854
 900  109303.4     91.5      0.22482  -0.08626  -0.02902  -0.34309
 901  109353.9     91.4    -12.01640  -0.00295   0.03158  -0.23072
 902  109366.5     91.4     -4.21575  -0.14720  -0.01615   0.13822
 903  109411.6     91.4     -1.51879  -0.02702  -0.09672  -0.13273
 904  109447.6     91.4     -6.32070   0.04724   0.01933  -0.16341
 905  109481.9     91.3      2.58465  -0.03650   0.10476   0.10554
 906  109515.3     91.3     -6.19595   0.01093   0.07898   0.13047
 907  109523.4     91.3      4.55286  -0.12749   0.08066  -0.12280
 908  109556.1     91.3     14.68596   0.10371   0.21587  -0.07608
 909  109578.2     91.3     13.54092   0.00511   0.07095   0.45831
 910  109626.1     91.2      1.18752   0.06767   0.13283   0.14025
 911  109662.6     91.2     -0.45505   0.00647  -0.14803   0.00004
 912  109703.4     91.2      3.28370   0.03497   0.08802   0.00252
 913  109722.7     91.1      1.18705  -0.06803   0.07084  -0.27866
 914  109750.4     91.1     10.15756  -0.02549   0.20063  -0.02699
 915  109779.4     91.1      0.13918   0.04262   0.04244  -0.07333
 916  109803.8     91.1      3.99136   0.00830  -0.04445  -0.20825
 917  109891.4     91.0    -11.15774  -0.09139  -0.05191  -0.13834
 918  109896.4     91.0      3.02478   0.06395   0.06429  -0.23621
 919  109914.8     91.0     -2.62537  -0.02517   0.11792   0.07763
 920  109976.8     90.9      0.33741  -0.03492  -0.09935  -0.20645
 921  110001.2     90.9    -16.53836  -0.03548  -0.15451   0.18255
 922  110047.4     90.9      9.47876  -0.08120  -0.05736  -0.16443
 923  110056.6     90.9     -6.41011  -0.01667   0.12781  -0.04786
 924  110110.6     90.8      0.62934  -0.03454  -0.11949  -0.19128
 925  110137.4     90.8      4.39701  -0.05329  -0.06643   0.04445
 926  110196.1     90.7      3.83670  -0.00983   0.08376  -0.09654
 927  110253.9     90.7     -4.34613  -0.03175  -0.03876   0.01664
 928  110277.8     90.7      8.95229  -0.05773  -0.05722   0.46521
 929  110316.6     90.6    -12.00213   0.22854  -0.21243  -0.04680
 930  110338.2     90.6     -6.98396   0.14230   0.04951  -0.21623
 931  110351.1     90.6     -1.04762  -0.09050  -0.01243   0.07098
 932  110393.1     90.6      0.07533  -0.06983   0.08740  -0.30204
 933  110447.0     90.5     13.44916  -0.07988  -0.00659   0.22017
 934  110460.9     90.5     -0.70764  -0.08011   0.13538   0.02423
 935  110516.5     90.5     -1.64490  -0.07411   0.05137   0.24579
 936  110546.6     90.5      6.69059  -0.01459   0.10097  -0.08273
 937  110554.8     90.5     -0.16962   0.07956  -0.01224   0.17337
 938  110597.7     90.4      0.06725  -0.04756   0.13827   0.16311
 939  110616.1     90.4      7.27200  -0.02499  -0.16168  -0.06640
 940  110631.0     90.4     -0.18565   0.09676   0.03996  -0.04738
 941  110658.6     90.4     -0.56249  -0.13796  -0.14570  -0.22768
 942  110684.1     90.3      2.49934  -0.08651  -0.04519   0.07069
 943  110713.1     90.3     -6.31173  -0.04101   0.03044  -0.11094
 944  110715.2     90.3     -2.20885   0.01646  -0.10105  -0.19910
 945  110788.5     90.3     -6.39152  -0.00130  -0.19845   0.16392
 946  110795.0     90.3     -2.15853  -0.03311  -0.00220  -0.09635
 947  110819.3     90.2      1.61508  -0.07774  -0.13684  -0.13004
 948  110862.8     90.2     -3.90293  -0.02885   0.05421   0.10639
 949  110886.7     90.2      1.79527  -0.03448  -0.14334  -0.12196
 950  110924.0     90.2      0.82901  -0.14274   0.05855  -0.01622
 951  110941.3     90.1     -0.05714  -0.05484   0.09467  -0.04437
 952  110954.4     90.1      2.84983  -0.10646  -0.17645   0.03421
 953  110979.3     90.1    -11.22753  -0.14361   0.06888  -0.22052
 954  111017.3     90.1      3.14735   0.05458   0.10455  -0.16906
 955  111069.6     90.0    -15.25278  -0.01468  -0.04502   0.26904
 956  111117.1     90.0     -1.62624  -0.06667   0.03936  -0.01847
 957  111141.3     90.0     -7.28445  -0.09613  -0.12238   0.08715
 958  111189.6     89.9     -9.04154   0.05657   0.09845  -0.23483
 959  111249.1     89.9     -5.84206  -0.11411   0.11968  -0.13727
 960  111293.9     89.9      0.24501   0.00391  -0.00241   0.17642
 961  111315.4     89.8     -4.20697   0.08016   0.01702  -0.08224
 962  111340.8     89.8     -0.79337   0.07965  -0.05840   0.06815
 963  111354.2     89.8      2.36312   0.14103   0.02816   0.02680
 964  111391.8     89.8      2.56731  -0.03468   0.01854  -0.05117
 965  111472.9     89.7      4.61988  -0.18658   0.04844   0.04398
 966  111489.6     89.7      9.69157  -0.02304   0.04957   0.16798
 967  111533.7     89.7     -0.67681   0.02273  -0.08194   0.04323
 968  111573.3     89.6     -5.67132   0.09536  -0.05678   0.27458
 969  111598.0     89.6     18.40475  -0.11631   0.03908   0.11364
 970  111634.3     89.6     -1.31897  -0.04771   0.13614  -0.02229
 971  111656.8     89.6     -6.52298  -0.05745  -0.01957   0.20463
 972  111685.4     89.5      7.64444  -0.10469   0.06539  -0.07205
 973  111738.3     89.5      4.35916  -0.00085   0.04996  -0.23435
 974  111757.0     89.5     -7.30015   0.12670  -0.03525  -0.09147
 975  111780.5     89.5      3.95867  -0.02058   0.07915   0.05240
 976  111834.9     89.4      1.83494   0.04276  -0.06440   0.32528
 977  111871.6     89.4     -3.14757  -0.19506   0.09431  -0.03859
 978  111893.4     89.4      2.87095   0.16194  -0.19285   0.18077
 979  111907.9     89.4      7.81351   0.03925   0.05550   0.20985
 980  111916.6     89.4      8.23628  -0.05942   0.01244  -0.19426
 981  111953.7     89.3     -3.51933  -0.07092  -0.05888  -0.04172
 982  111992.0     89.3     10.01320  -0.03789   0.03401   0.16790
 983  112043.0     89.3     -1.98959   0.00758  -0.02727   0.16441
 984  112072.4     89.2     -1.50367   0.06944   0.01334  -0.16426
 985  112083.3     89.2     -7.31579  -0.07618   0.13561   0.14797
 986  112126.9     89.2      1.20540  -0.05580   0.02078  -0.22721
 987  112207.1     89.1      3.53465   0.01425  -0.06320  -0.04541
 988  112214.3     89.1     -5.81707  -0.02205   0.13206   0.02001
 989  112240.7     89.1     -1.33382   0.03781  -0.01952   0.13964
 990  112266.2     89.1      3.50637   0.07251  -0.03492  -0.08847
 991  112286.6     89.1     -0.64251  -0.02759  -0.07617  -0.03720
 992  112349.0     89.0      1.30684   0.03138  -0.11514   0.06109
 993  112365.3     89.0     12.31624   0.06540  -0.11713   0.44496
 994  112376.0     89.0      5.81079  -0.02357   0.10820   0.27498
 995  112419.3     89.0      7.37850  -0.05466   0.11342   0.19492
 996  112457.9     88.9     -1.17204   0.01284   0.11330  -0.19925
 997  112513.6     88.9      1.63893   0.05723  -0.01777  -0.17209
 998  112534.2     88.9      3.04899   0.00351   0.09913   0.33888
 999  112566.0     88.8     -2.47304  -0.00519  -0.05353   0.06497
 1000  112606.0     88.8     -0.21095  -0.00418   0.10026  -0.15986

Total run time:    11735.041 sec

           *** ORCA-CIS/TD-DFT FINISHED WITHOUT ERROR ***

Maximum memory used throughout the entire CIS-calculation: 4446.1 MB

-----------------------
CIS/TD-DFT TOTAL ENERGY
-----------------------

    E(SCF)  =   -619.116200840 Eh
    DE(CIS) =      0.156951553 Eh (Root  1)
    ----------------------------- ---------
    E(tot)  =   -618.959249287 Eh



-------------------------------------------------------------------------------
                          DFT DISPERSION CORRECTION                            
                                                                               
                                 DFTD4 V2.5                                    
-------------------------------------------------------------------------------
The B3LYP functional is recognized
Active option DFTDOPT                   ...         5   

Starting D4
-------------------------   ----------------
Dispersion correction           -0.070310615
-------------------------   ----------------


-------------------------   --------------------
FINAL SINGLE POINT ENERGY      -619.029559902126
-------------------------   --------------------


                            ***************************************
                            *     ORCA property calculations      *
                            ***************************************

                                    ---------------------
                                    Active property flags
                                    ---------------------
   (+) Dipole Moment


------------------------------------------------------------------------------
                       ORCA ELECTRIC PROPERTIES CALCULATION
------------------------------------------------------------------------------

Dipole Moment Calculation                       ... on
Quadrupole Moment Calculation                   ... off
Polarizability Calculation                      ... off
GBWName                                         ... Hexahydropyrene_spectra.gbw
Electron density                                ... Hexahydropyrene_spectra.scfp
The origin for moment calculation is the CENTER OF MASS  = ( 0.010025,  0.011157 -0.002036)

-------------
DIPOLE MOMENT
-------------
                                X             Y             Z
Electronic contribution:      9.06756       5.08576      -0.52114
Nuclear contribution   :     -9.44536      -5.31513       0.51541
                        -----------------------------------------
Total Dipole Moment    :     -0.37780      -0.22937      -0.00573
                        -----------------------------------------
Magnitude (a.u.)       :      0.44201
Magnitude (Debye)      :      1.12350



--------------------
Rotational spectrum 
--------------------
 
Rotational constants in cm-1:     0.031258     0.017125     0.011327 
Rotational constants in MHz :   937.087977   513.383677   339.573419 

 Dipole components along the rotational axes: 
x,y,z [a.u.] :    -0.378847    -0.227451    -0.010707 
x,y,z [Debye]:    -0.962952    -0.578134    -0.027216 

 

Timings for individual modules:

Sum of individual times         ...    12325.468 sec (= 205.424 min)
GTO integral calculation        ...        0.618 sec (=   0.010 min)   0.0 %
SCF iterations                  ...      589.636 sec (=   9.827 min)   4.8 %
CIS module                      ...    11735.214 sec (= 195.587 min)  95.2 %
                             ****ORCA TERMINATED NORMALLY****
TOTAL RUN TIME: 0 days 3 hours 25 minutes 26 seconds 192 msec
