
                                 *****************
                                 * O   R   C   A *
                                 *****************

                                            #,                                       
                                            ###                                      
                                            ####                                     
                                            #####                                    
                                            ######                                   
                                           ########,                                 
                                     ,,################,,,,,                         
                               ,,#################################,,                 
                          ,,##########################################,,             
                       ,#########################################, ''#####,          
                    ,#############################################,,   '####,        
                  ,##################################################,,,,####,       
                ,###########''''           ''''###############################       
              ,#####''   ,,,,##########,,,,          '''####'''          '####       
            ,##' ,,,,###########################,,,                        '##       
           ' ,,###''''                  '''############,,,                           
         ,,##''                                '''############,,,,        ,,,,,,###''
      ,#''                                            '''#######################'''  
     '                                                          ''''####''''         
             ,#######,   #######,   ,#######,      ##                                
            ,#'     '#,  ##    ##  ,#'     '#,    #''#        ######   ,####,        
            ##       ##  ##   ,#'  ##            #'  '#       #        #'  '#        
            ##       ##  #######   ##           ,######,      #####,   #    #        
            '#,     ,#'  ##    ##  '#,     ,#' ,#      #,         ##   #,  ,#        
             '#######'   ##     ##  '#######'  #'      '#     #####' # '####'        



                  #######################################################
                  #                        -***-                        #
                  #          Department of theory and spectroscopy      #
                  #    Directorship and core code : Frank Neese         #
                  #        Max Planck Institute fuer Kohlenforschung    #
                  #                Kaiser Wilhelm Platz 1               #
                  #                 D-45470 Muelheim/Ruhr               #
                  #                      Germany                        #
                  #                                                     #
                  #                  All rights reserved                #
                  #                        -***-                        #
                  #######################################################



                         Program Version 5.0.4 -  RELEASE  -

 With contributions from (in alphabetic order):
   Daniel Aravena         : Magnetic Suceptibility
   Michael Atanasov       : Ab Initio Ligand Field Theory (pilot matlab implementation)
   Alexander A. Auer      : GIAO ZORA, VPT2 properties, NMR spectrum
   Ute Becker             : Parallelization
   Giovanni Bistoni       : ED, misc. LED, open-shell LED, HFLD
   Martin Brehm           : Molecular dynamics
   Dmytro Bykov           : SCF Hessian
   Vijay G. Chilkuri      : MRCI spin determinant printing, contributions to CSF-ICE
   Dipayan Datta          : RHF DLPNO-CCSD density
   Achintya Kumar Dutta   : EOM-CC, STEOM-CC
   Dmitry Ganyushin       : Spin-Orbit,Spin-Spin,Magnetic field MRCI
   Miquel Garcia          : C-PCM and meta-GGA Hessian, CC/C-PCM, Gaussian charge scheme
   Yang Guo               : DLPNO-NEVPT2, F12-NEVPT2, CIM, IAO-localization
   Andreas Hansen         : Spin unrestricted coupled pair/coupled cluster methods
   Benjamin Helmich-Paris : MC-RPA, TRAH-SCF, COSX integrals
   Lee Huntington         : MR-EOM, pCC
   Robert Izsak           : Overlap fitted RIJCOSX, COSX-SCS-MP3, EOM
   Marcus Kettner         : VPT2
   Christian Kollmar      : KDIIS, OOCD, Brueckner-CCSD(T), CCSD density, CASPT2, CASPT2-K
   Simone Kossmann        : Meta GGA functionals, TD-DFT gradient, OOMP2, MP2 Hessian
   Martin Krupicka        : Initial AUTO-CI
   Lucas Lang             : DCDCAS
   Marvin Lechner         : AUTO-CI (C++ implementation), FIC-MRCC
   Dagmar Lenk            : GEPOL surface, SMD
   Dimitrios Liakos       : Extrapolation schemes; Compound Job, initial MDCI parallelization
   Dimitrios Manganas     : Further ROCIS development; embedding schemes
   Dimitrios Pantazis     : SARC Basis sets
   Anastasios Papadopoulos: AUTO-CI, single reference methods and gradients
   Taras Petrenko         : DFT Hessian,TD-DFT gradient, ASA, ECA, R-Raman, ABS, FL, XAS/XES, NRVS
   Peter Pinski           : DLPNO-MP2, DLPNO-MP2 Gradient
   Christoph Reimann      : Effective Core Potentials
   Marius Retegan         : Local ZFS, SOC
   Christoph Riplinger    : Optimizer, TS searches, QM/MM, DLPNO-CCSD(T), (RO)-DLPNO pert. Triples
   Tobias Risthaus        : Range-separated hybrids, TD-DFT gradient, RPA, STAB
   Michael Roemelt        : Original ROCIS implementation
   Masaaki Saitow         : Open-shell DLPNO-CCSD energy and density
   Barbara Sandhoefer     : DKH picture change effects
   Avijit Sen             : IP-ROCIS
   Kantharuban Sivalingam : CASSCF convergence, NEVPT2, FIC-MRCI
   Bernardo de Souza      : ESD, SOC TD-DFT
   Georgi Stoychev        : AutoAux, RI-MP2 NMR, DLPNO-MP2 response
   Willem Van den Heuvel  : Paramagnetic NMR
   Boris Wezisla          : Elementary symmetry handling
   Frank Wennmohs         : Technical directorship


 We gratefully acknowledge several colleagues who have allowed us to
 interface, adapt or use parts of their codes:
   Stefan Grimme, W. Hujo, H. Kruse, P. Pracht,  : VdW corrections, initial TS optimization,
                  C. Bannwarth, S. Ehlert          DFT functionals, gCP, sTDA/sTD-DF
   Ed Valeev, F. Pavosevic, A. Kumar             : LibInt (2-el integral package), F12 methods
   Garnet Chan, S. Sharma, J. Yang, R. Olivares  : DMRG
   Ulf Ekstrom                                   : XCFun DFT Library
   Mihaly Kallay                                 : mrcc  (arbitrary order and MRCC methods)
   Jiri Pittner, Ondrej Demel                    : Mk-CCSD
   Frank Weinhold                                : gennbo (NPA and NBO analysis)
   Christopher J. Cramer and Donald G. Truhlar   : smd solvation model
   Lars Goerigk                                  : TD-DFT with DH, B97 family of functionals
   V. Asgeirsson, H. Jonsson                     : NEB implementation
   FAccTs GmbH                                   : IRC, NEB, NEB-TS, DLPNO-Multilevel, CI-OPT
                                                   MM, QMMM, 2- and 3-layer-ONIOM, Crystal-QMMM,
                                                   LR-CPCM, SF, NACMEs, symmetry and pop. for TD-DFT,
                                                   nearIR, NL-DFT gradient (VV10), updates on ESD,
                                                   ML-optimized integration grids
   S Lehtola, MJT Oliveira, MAL Marques          : LibXC Library
   Liviu Ungur et al                             : ANISO software


 Your calculation uses the libint2 library for the computation of 2-el integrals
 For citations please refer to: http://libint.valeyev.net

 Your ORCA version has been built with support for libXC version: 5.1.0
 For citations please refer to: https://tddft.org/programs/libxc/

 This ORCA versions uses:
   CBLAS   interface :  Fast vector & matrix operations
   LAPACKE interface :  Fast linear algebra routines
   Shared memory     :  Shared parallel matrices


XCFun DFT library Copyright 2009-2010 Ulf Ekstrom and contributors.
See http://admol.org/xcfun for more information.
This is free software; see the source code for copying conditions.
There is ABSOLUTELY NO WARRANTY; not even for MERCHANTABILITY or FITNESS FOR A PARTICULAR PURPOSE.
For details see the documentation.
Scientific users of this library should cite U. Ekstrom, L. Visscher, R. Bast, A. J. Thorvaldsen and K. Ruud;
J.Chem.Theor.Comp. 2010, DOI: 10.1021/ct100117s
XCFun Version 0.99 

================================================================================

----- Orbital basis set information -----
Your calculation utilizes the basis: def2-TZVP
   F. Weigend and R. Ahlrichs, Phys. Chem. Chem. Phys. 7, 3297 (2005).

----- AuxJ basis set information -----
Your calculation utilizes the auxiliary basis: def2/J
   F. Weigend, Phys. Chem. Chem. Phys. 8, 1057 (2006).

================================================================================
                                        WARNINGS
                       Please study these warnings very carefully!
================================================================================


WARNING: Geometry Optimization
  ===> : Switching off AutoStart
         For restart on a previous wavefunction, please use MOREAD

WARNING: Minnesota functionals are quite sensitive to the integration grid.
         see SE Wheeler, KN Houk, JCTC 2010, 6, 395,
             N Mardirossian, M Head-Gordon, JCTC 2016, 12, 4303.
         DEFGRID3 seems to be a minimum grid for reliable results with these functionals!
  ===> : Please increase the integration grid!


INFO   : the flag for use of the SHARK integral package has been found!

================================================================================
                                       INPUT FILE
================================================================================
NAME = five_six_two_one_ten_twelve_loss.inp
|  1> !M062x def2-tzvp opt freq tightscf
|  2> 
|  3> %freq
|  4> Temp 298.15,10,20,50,100,6000,8000,10000
|  5> end
|  6> 
|  7> %maxcore 4000
|  8> %pal
|  9> nprocs 3
| 10> end
| 11> 
| 12> 
| 13> %geom
| 14>   maxiter 2000
| 15>   end
| 16> 
| 17> * xyz 0 1
| 18>   C   2.46362427987247     -2.85071308273857     -0.00000218907091
| 19>   C   1.27719400513090     -3.52585311672403     -0.00003902795947
| 20>   C   0.05064934326115     -2.82613554872827     -0.00011828018749
| 21>   C   -1.19925193688694     -3.46606389677068     -0.00015928151260
| 22>   C   -2.39885271805658     -2.87183824187673     -0.00023283554738
| 23>   C   -2.43518053153382     -1.44080024452875     -0.00027277196623
| 24>   C   -3.66777674509120     -0.75191121775761     -0.00034379554662
| 25>   C   -3.71279324924276      0.61270000430768     -0.00038290810371
| 26>   C   -2.51870888891228      1.35470401292599     -0.00035207453727
| 27>   C   -2.33852946574720      2.75004532075493     -0.00038523866368
| 28>   C   -1.29227857579710      3.37936032270345     -0.00036005870682
| 29>   C   0.02296635156368      2.87874227377718     -0.00029143038758
| 30>   C   1.23211767469076      3.59211777508479     -0.00026457178571
| 31>   C   2.42594730830480      2.92563510630820     -0.00019121984698
| 32>   C   2.44893445959464      1.52227723319545     -0.00014614397662
| 33>   C   3.55845924150033      0.65762020353451     -0.00006795876215
| 34>   C   3.57066637986837     -0.56331157183495     -0.00002324805222
| 35>   C   2.47403114247392     -1.44414615823703     -0.00004617494814
| 36>   C   1.25557023434205     -0.69183165762109     -0.00012491861115
| 37>   C   1.23800989899349      0.75081893774134     -0.00017659337158
| 38>   C   -0.00359548669936      1.44369816359284     -0.00024809051538
| 39>   C   -1.24385874208543      0.70472511229996     -0.00028011039122
| 40>   C   -1.22033926149096     -0.71624674943317     -0.00023589301594
| 41>   C   0.03056944314590     -1.40895937212992     -0.00016349124726
| 42>   H   1.25543248807529     -4.60779790743838     -0.00000593698860
| 43>   H   -3.32874432396662     -3.42840544994019     -0.00026138694326
| 44>   H   -4.58380467774224     -1.32989113444890     -0.00036599782084
| 45>   H   -4.65611295060898      1.14148914368134     -0.00043697075864
| 46>   H   1.19941226127863      4.67287271493635     -0.00030009286005
| 47>   H   3.36338199069149      3.46449630946482     -0.00016807868239
| 48> **                         ****END OF INPUT****
================================================================================

                       *****************************
                       * Geometry Optimization Run *
                       *****************************

Geometry optimization settings:
Update method            Update   .... BFGS
Choice of coordinates    CoordSys .... Z-matrix Internals
Initial Hessian          InHess   .... Almoef's Model

Convergence Tolerances:
Energy Change            TolE     ....  5.0000e-06 Eh
Max. Gradient            TolMAXG  ....  3.0000e-04 Eh/bohr
RMS Gradient             TolRMSG  ....  1.0000e-04 Eh/bohr
Max. Displacement        TolMAXD  ....  4.0000e-03 bohr
RMS Displacement         TolRMSD  ....  2.0000e-03 bohr
Strict Convergence                ....  False
------------------------------------------------------------------------------
                        ORCA OPTIMIZATION COORDINATE SETUP
------------------------------------------------------------------------------

The optimization will be done in new redundant internal coordinates
Making redundant internal coordinates   ...  (new redundants) done
Evaluating the initial hessian          ...  (Almloef) done
Evaluating the coordinates              ...  done
Calculating the B-matrix                .... done
Calculating the G-matrix                .... done
Diagonalizing the G-matrix              .... done
The first mode is                       ....  110
The number of degrees of freedom        ....   84

    -----------------------------------------------------------------
                    Redundant Internal Coordinates


    -----------------------------------------------------------------
         Definition                    Initial Value    Approx d2E/dq
    -----------------------------------------------------------------
      1. B(C   1,C   0)                  1.3651         0.684706   
      2. B(C   2,C   1)                  1.4121         0.576083   
      3. B(C   3,C   2)                  1.4042         0.593052   
      4. B(C   4,C   3)                  1.3387         0.754341   
      5. B(C   5,C   4)                  1.4315         0.536450   
      6. B(C   6,C   5)                  1.4120         0.576199   
      7. B(C   7,C   6)                  1.3654         0.684007   
      8. B(C   8,C   7)                  1.4058         0.589461   
      9. B(C   9,C   8)                  1.4069         0.587129   
     10. B(C  10,C   9)                  1.2209         1.162716   
     11. B(C  11,C  10)                  1.4073         0.586328   
     12. B(C  12,C  11)                  1.4039         0.593680   
     13. B(C  13,C  12)                  1.3673         0.679207   
     14. B(C  14,C  13)                  1.4035         0.594465   
     15. B(C  15,C  14)                  1.4067         0.587716   
     16. B(C  16,C  15)                  1.2210         1.162462   
     17. B(C  17,C  16)                  1.4066         0.587868   
     18. B(C  17,C   0)                  1.4066         0.587822   
     19. B(C  18,C  17)                  1.4320         0.535464   
     20. B(C  19,C  18)                  1.4428         0.514716   
     21. B(C  19,C  14)                  1.4358         0.528065   
     22. B(C  20,C  19)                  1.4219         0.555801   
     23. B(C  20,C  11)                  1.4353         0.529031   
     24. B(C  21,C  20)                  1.4437         0.512894   
     25. B(C  21,C   8)                  1.4310         0.537466   
     26. B(C  22,C  21)                  1.4212         0.557204   
     27. B(C  22,C   5)                  1.4145         0.571014   
     28. B(C  23,C  22)                  1.4299         0.539604   
     29. B(C  23,C  18)                  1.4195         0.560685   
     30. B(C  23,C   2)                  1.4173         0.565137   
     31. B(H  24,C   1)                  1.0822         0.370617   
     32. B(H  25,C   4)                  1.0837         0.368494   
     33. B(H  26,C   6)                  1.0831         0.369305   
     34. B(H  27,C   7)                  1.0814         0.371631   
     35. B(H  28,C  12)                  1.0812         0.371864   
     36. B(H  29,C  13)                  1.0813         0.371829   
     37. A(C   1,C   0,C  17)          120.0660         0.437675   
     38. A(C   2,C   1,H  24)          118.5516         0.350254   
     39. A(C   0,C   1,H  24)          120.7944         0.360670   
     40. A(C   0,C   1,C   2)          120.6541         0.436087   
     41. A(C   1,C   2,C   3)          123.1845         0.424979   
     42. A(C   3,C   2,C  23)          116.2999         0.423524   
     43. A(C   1,C   2,C  23)          120.5156         0.421333   
     44. A(C   2,C   3,C   4)          126.5367         0.446119   
     45. A(C   5,C   4,H  25)          119.4476         0.345739   
     46. A(C   3,C   4,C   5)          117.8058         0.438102   
     47. A(C   3,C   4,H  25)          122.7466         0.366330   
     48. A(C   4,C   5,C  22)          119.3584         0.416781   
     49. A(C   4,C   5,C   6)          120.6547         0.417452   
     50. A(C   6,C   5,C  22)          119.9869         0.422127   
     51. A(C   5,C   6,H  26)          118.5491         0.350056   
     52. A(C   5,C   6,C   7)          121.0899         0.436023   
     53. A(C   7,C   6,H  26)          120.3610         0.360389   
     54. A(C   6,C   7,C   8)          119.9674         0.437815   
     55. A(C   8,C   7,H  27)          118.8699         0.351777   
     56. A(C   6,C   7,H  27)          121.1627         0.360775   
     57. A(C   9,C   8,C  21)          109.6568         0.418993   
     58. A(C   7,C   8,C   9)          129.2147         0.425963   
     59. A(C   7,C   8,C  21)          121.1285         0.419290   
     60. A(C   8,C   9,C  10)          128.3846         0.481967   
     61. A(C   9,C  10,C  11)          128.1351         0.481846   
     62. A(C  12,C  11,C  20)          121.6002         0.418641   
     63. A(C  10,C  11,C  20)          109.7778         0.417713   
     64. A(C  10,C  11,C  12)          128.6220         0.426403   
     65. A(C  11,C  12,H  28)          118.8064         0.352239   
     66. A(C  11,C  12,C  13)          120.2868         0.437822   
     67. A(C  13,C  12,H  28)          120.9068         0.360381   
     68. A(C  14,C  13,H  29)          118.9530         0.352312   
     69. A(C  12,C  13,H  29)          120.9352         0.360375   
     70. A(C  12,C  13,C  14)          120.1119         0.437926   
     71. A(C  13,C  14,C  15)          128.8679         0.426685   
     72. A(C  15,C  14,C  19)          109.5701         0.417752   
     73. A(C  13,C  14,C  19)          121.5621         0.418603   
     74. A(C  14,C  15,C  16)          128.5023         0.482036   
     75. A(C  15,C  16,C  17)          128.1991         0.482060   
     76. A(C  16,C  17,C  18)          109.5356         0.418809   
     77. A(C   0,C  17,C  18)          121.2685         0.418803   
     78. A(C   0,C  17,C  16)          129.1959         0.425847   
     79. A(C  17,C  18,C  19)          122.3898         0.409037   
     80. A(C  19,C  18,C  23)          119.6477         0.412388   
     81. A(C  17,C  18,C  23)          117.9624         0.415293   
     82. A(C  18,C  19,C  20)          119.8611         0.411748   
     83. A(C  14,C  19,C  20)          118.3358         0.413624   
     84. A(C  14,C  19,C  18)          121.8031         0.408030   
     85. A(C  11,C  20,C  19)          118.1034         0.413758   
     86. A(C  19,C  20,C  21)          120.0489         0.411489   
     87. A(C  11,C  20,C  21)          121.8477         0.407906   
     88. A(C  20,C  21,C  22)          119.8391         0.411673   
     89. A(C   8,C  21,C  22)          117.9629         0.415109   
     90. A(C   8,C  21,C  20)          122.1981         0.409050   
     91. A(C  21,C  22,C  23)          119.9245         0.415402   
     92. A(C   5,C  22,C  23)          120.2111         0.417216   
     93. A(C   5,C  22,C  21)          119.8644         0.419609   
     94. A(C  18,C  23,C  22)          120.6786         0.415863   
     95. A(C   2,C  23,C  22)          119.7880         0.416448   
     96. A(C   2,C  23,C  18)          119.5334         0.419301   
     97. D(C   2,C   1,C   0,C  17)     -0.0001         0.029800   
     98. D(H  24,C   1,C   0,C  17)    180.0000         0.029800   
     99. D(C   3,C   2,C   1,H  24)     -0.0001         0.022787   
    100. D(C   3,C   2,C   1,C   0)    180.0000         0.022787   
    101. D(C  23,C   2,C   1,C   0)      0.0001         0.022787   
    102. D(C  23,C   2,C   1,H  24)    180.0000         0.022787   
    103. D(C   4,C   3,C   2,C  23)     -0.0002         0.021974   
    104. D(C   4,C   3,C   2,C   1)    179.9999         0.021974   
    105. D(C   5,C   4,C   3,C   2)     -0.0001         0.036764   
    106. D(H  25,C   4,C   3,C   2)    180.0000         0.036764   
    107. D(C  22,C   5,C   4,H  25)   -180.0000         0.019656   
    108. D(C   6,C   5,C   4,C   3)   -179.9997         0.019656   
    109. D(C   6,C   5,C   4,H  25)      0.0002         0.019656   
    110. D(C  22,C   5,C   4,C   3)      0.0001         0.019656   
    111. D(C   7,C   6,C   5,C   4)   -180.0000         0.022796   
    112. D(C   7,C   6,C   5,C  22)      0.0002         0.022796   
    113. D(H  26,C   6,C   5,C   4)      0.0001         0.022796   
    114. D(H  26,C   6,C   5,C  22)   -179.9997         0.022796   
    115. D(H  27,C   7,C   6,H  26)     -0.0000         0.032827   
    116. D(H  27,C   7,C   6,C   5)   -180.0000         0.032827   
    117. D(C   8,C   7,C   6,C   5)     -0.0000         0.032827   
    118. D(C   8,C   7,C   6,H  26)    179.9999         0.032827   
    119. D(C  21,C   8,C   7,H  27)    180.0000         0.023909   
    120. D(C  21,C   8,C   7,C   6)      0.0000         0.023909   
    121. D(C   9,C   8,C   7,H  27)     -0.0002         0.023909   
    122. D(C   9,C   8,C   7,C   6)    179.9999         0.023909   
    123. D(C  10,C   9,C   8,C  21)     -0.0000         0.021519   
    124. D(C  10,C   9,C   8,C   7)   -179.9999         0.021519   
    125. D(C  11,C  10,C   9,C   8)      0.0000         0.086136   
    126. D(C  12,C  11,C  10,C   9)    179.9999         0.021458   
    127. D(C  20,C  11,C  10,C   9)     -0.0001         0.021458   
    128. D(H  28,C  12,C  11,C  10)     -0.0001         0.024270   
    129. D(C  13,C  12,C  11,C  20)     -0.0002         0.024270   
    130. D(C  13,C  12,C  11,C  10)    179.9998         0.024270   
    131. D(H  28,C  12,C  11,C  20)    180.0000         0.024270   
    132. D(H  29,C  13,C  12,C  11)   -179.9999         0.032332   
    133. D(H  29,C  13,C  12,H  28)     -0.0001         0.032332   
    134. D(C  14,C  13,C  12,C  11)      0.0002         0.032332   
    135. D(C  14,C  13,C  12,H  28)   -180.0000         0.032332   
    136. D(C  19,C  14,C  13,C  12)      0.0001         0.024338   
    137. D(C  19,C  14,C  13,H  29)   -179.9999         0.024338   
    138. D(C  15,C  14,C  13,C  12)   -179.9999         0.024338   
    139. D(C  15,C  14,C  13,H  29)      0.0002         0.024338   
    140. D(C  16,C  15,C  14,C  19)     -0.0003         0.021564   
    141. D(C  16,C  15,C  14,C  13)    179.9996         0.021564   
    142. D(C  17,C  16,C  15,C  14)      0.0004         0.086092   
    143. D(C  18,C  17,C  16,C  15)     -0.0004         0.021575   
    144. D(C   0,C  17,C  16,C  15)    179.9997         0.021575   
    145. D(C  18,C  17,C   0,C   1)      0.0002         0.021572   
    146. D(C  16,C  17,C   0,C   1)   -179.9998         0.021572   
    147. D(C  23,C  18,C  17,C  16)    179.9998         0.019582   
    148. D(C  23,C  18,C  17,C   0)     -0.0003         0.019582   
    149. D(C  19,C  18,C  17,C  16)      0.0003         0.019582   
    150. D(C  19,C  18,C  17,C   0)   -179.9998         0.019582   
    151. D(C  20,C  19,C  18,C  23)      0.0008         0.018061   
    152. D(C  20,C  19,C  18,C  17)   -179.9997         0.018061   
    153. D(C  14,C  19,C  18,C  23)   -179.9997         0.018061   
    154. D(C  14,C  19,C  18,C  17)     -0.0003         0.018061   
    155. D(C  20,C  19,C  14,C  15)    179.9997         0.019030   
    156. D(C  20,C  19,C  14,C  13)     -0.0003         0.019030   
    157. D(C  18,C  19,C  14,C  15)      0.0002         0.019030   
    158. D(C  18,C  19,C  14,C  13)   -179.9997         0.019030   
    159. D(C  19,C  20,C  11,C  10)    180.0000         0.019102   
    160. D(C  21,C  20,C  19,C  18)     -0.0005         0.021148   
    161. D(C  21,C  20,C  19,C  14)   -180.0000         0.021148   
    162. D(C  11,C  20,C  19,C  18)    179.9997         0.021148   
    163. D(C  11,C  20,C  19,C  14)      0.0002         0.021148   
    164. D(C  21,C  20,C  11,C  12)   -179.9998         0.019102   
    165. D(C  21,C  20,C  11,C  10)      0.0002         0.019102   
    166. D(C  19,C  20,C  11,C  12)     -0.0000         0.019102   
    167. D(C  22,C  21,C  20,C  19)      0.0002         0.017931   
    168. D(C  22,C  21,C  20,C  11)    180.0000         0.017931   
    169. D(C   8,C  21,C  20,C  19)   -180.0000         0.017931   
    170. D(C   8,C  21,C  20,C  11)     -0.0002         0.017931   
    171. D(C  22,C  21,C   8,C   9)    179.9999         0.019733   
    172. D(C  22,C  21,C   8,C   7)     -0.0002         0.019733   
    173. D(C  20,C  21,C   8,C   9)      0.0001         0.019733   
    174. D(C  20,C  21,C   8,C   7)    180.0000         0.019733   
    175. D(C  23,C  22,C  21,C  20)     -0.0002         0.021259   
    176. D(C  23,C  22,C  21,C   8)   -180.0000         0.021259   
    177. D(C   5,C  22,C  21,C  20)   -179.9997         0.021259   
    178. D(C   5,C  22,C  21,C   8)      0.0004         0.021259   
    179. D(C  23,C  22,C   5,C   6)    180.0000         0.022370   
    180. D(C  23,C  22,C   5,C   4)      0.0002         0.022370   
    181. D(C  21,C  22,C   5,C   6)     -0.0004         0.022370   
    182. D(C  21,C  22,C   5,C   4)    179.9998         0.022370   
    183. D(C  18,C  23,C  22,C  21)      0.0005         0.019895   
    184. D(C  18,C  23,C  22,C   5)   -180.0000         0.019895   
    185. D(C   2,C  23,C  22,C  21)    179.9999         0.019895   
    186. D(C   2,C  23,C  22,C   5)     -0.0005         0.019895   
    187. D(C  22,C  23,C  18,C  19)     -0.0008         0.021536   
    188. D(C  22,C  23,C  18,C  17)    179.9997         0.021536   
    189. D(C   2,C  23,C  18,C  19)    179.9997         0.021536   
    190. D(C   2,C  23,C  18,C  17)      0.0002         0.021536   
    191. D(C  22,C  23,C   2,C   3)      0.0005         0.021893   
    192. D(C  22,C  23,C   2,C   1)   -179.9996         0.021893   
    193. D(C  18,C  23,C   2,C   3)    179.9999         0.021893   
    194. D(C  18,C  23,C   2,C   1)     -0.0002         0.021893   
    -----------------------------------------------------------------

Number of atoms                         .... 30
Number of degrees of freedom            .... 194

         *************************************************************
         *                GEOMETRY OPTIMIZATION CYCLE   1            *
         *************************************************************
---------------------------------
CARTESIAN COORDINATES (ANGSTROEM)
---------------------------------
  C      2.463624   -2.850713   -0.000002
  C      1.277194   -3.525853   -0.000039
  C      0.050649   -2.826136   -0.000118
  C     -1.199252   -3.466064   -0.000159
  C     -2.398853   -2.871838   -0.000233
  C     -2.435181   -1.440800   -0.000273
  C     -3.667777   -0.751911   -0.000344
  C     -3.712793    0.612700   -0.000383
  C     -2.518709    1.354704   -0.000352
  C     -2.338529    2.750045   -0.000385
  C     -1.292279    3.379360   -0.000360
  C      0.022966    2.878742   -0.000291
  C      1.232118    3.592118   -0.000265
  C      2.425947    2.925635   -0.000191
  C      2.448934    1.522277   -0.000146
  C      3.558459    0.657620   -0.000068
  C      3.570666   -0.563312   -0.000023
  C      2.474031   -1.444146   -0.000046
  C      1.255570   -0.691832   -0.000125
  C      1.238010    0.750819   -0.000177
  C     -0.003595    1.443698   -0.000248
  C     -1.243859    0.704725   -0.000280
  C     -1.220339   -0.716247   -0.000236
  C      0.030569   -1.408959   -0.000163
  H      1.255432   -4.607798   -0.000006
  H     -3.328744   -3.428405   -0.000261
  H     -4.583805   -1.329891   -0.000366
  H     -4.656113    1.141489   -0.000437
  H      1.199412    4.672873   -0.000300
  H      3.363382    3.464496   -0.000168

----------------------------
CARTESIAN COORDINATES (A.U.)
----------------------------
  NO LB      ZA    FRAG     MASS         X           Y           Z
   0 C     6.0000    0    12.011    4.655575   -5.387067   -0.000004
   1 C     6.0000    0    12.011    2.413547   -6.662897   -0.000074
   2 C     6.0000    0    12.011    0.095713   -5.340622   -0.000224
   3 C     6.0000    0    12.011   -2.266258   -6.549912   -0.000301
   4 C     6.0000    0    12.011   -4.533175   -5.426988   -0.000440
   5 C     6.0000    0    12.011   -4.601824   -2.722718   -0.000515
   6 C     6.0000    0    12.011   -6.931094   -1.420906   -0.000650
   7 C     6.0000    0    12.011   -7.016162    1.157835   -0.000724
   8 C     6.0000    0    12.011   -4.759670    2.560020   -0.000665
   9 C     6.0000    0    12.011   -4.419180    5.196833   -0.000728
  10 C     6.0000    0    12.011   -2.442053    6.386066   -0.000680
  11 C     6.0000    0    12.011    0.043400    5.440035   -0.000551
  12 C     6.0000    0    12.011    2.328365    6.788119   -0.000500
  13 C     6.0000    0    12.011    4.584376    5.528649   -0.000361
  14 C     6.0000    0    12.011    4.627815    2.876687   -0.000276
  15 C     6.0000    0    12.011    6.724513    1.242722   -0.000128
  16 C     6.0000    0    12.011    6.747582   -1.064505   -0.000044
  17 C     6.0000    0    12.011    4.675241   -2.729041   -0.000087
  18 C     6.0000    0    12.011    2.372684   -1.307372   -0.000236
  19 C     6.0000    0    12.011    2.339500    1.418842   -0.000334
  20 C     6.0000    0    12.011   -0.006794    2.728194   -0.000469
  21 C     6.0000    0    12.011   -2.350552    1.331737   -0.000529
  22 C     6.0000    0    12.011   -2.306107   -1.353510   -0.000446
  23 C     6.0000    0    12.011    0.057768   -2.662547   -0.000309
  24 H     1.0000    0     1.008    2.372424   -8.707476   -0.000011
  25 H     1.0000    0     1.008   -6.290415   -6.478747   -0.000494
  26 H     1.0000    0     1.008   -8.662135   -2.513130   -0.000692
  27 H     1.0000    0     1.008   -8.798778    2.157102   -0.000826
  28 H     1.0000    0     1.008    2.266561    8.830450   -0.000567
  29 H     1.0000    0     1.008    6.355871    6.546949   -0.000318

--------------------------------
INTERNAL COORDINATES (ANGSTROEM)
--------------------------------
 C      0   0   0     0.000000000000     0.00000000     0.00000000
 C      1   0   0     1.365075405855     0.00000000     0.00000000
 C      2   1   0     1.412096487073   120.65405474     0.00000000
 C      3   2   1     1.404194253807   123.18448403   179.99999548
 C      4   3   2     1.338710636593   126.53667483   179.99993029
 C      5   4   3     1.431499026015   117.80582306     0.00000000
 C      6   5   4     1.412041614800   120.65468373   180.00031337
 C      7   6   5     1.365353534643   121.08992386   180.00002878
 C      8   7   6     1.405847576853   119.96739963     0.00000000
 C      9   8   7     1.406926434099   129.21466480   179.99985058
 C     10   9   8     1.220933371250   128.38455854   180.00014667
 C     11  10   9     1.407297997785   128.13510071     0.00000000
 C     12  11  10     1.403905811943   128.62204290   179.99986207
 C     13  12  11     1.367270400197   120.28679399   179.99978107
 C     14  13  12     1.403546127202   120.11186410     0.00000000
 C     15  14  13     1.406654551309   128.86785381   180.00012098
 C     16  15  14     1.220992799460   128.50226321   179.99964904
 C     17  16  15     1.406583951644   128.19913909     0.00000000
 C     18  17  16     1.432000034456   109.53559171     0.00000000
 C     15  14  13     1.435787656312   121.56205315     0.00000000
 C     20  15  14     1.421852861765   118.33577083     0.00000000
 C      9   8   7     1.430984092610   121.12854471     0.00000000
 C      6   5   4     1.414502414284   119.35844359     0.00000000
 C      3   2   1     1.417318425743   120.51560303     0.00000000
 H      2   1   3     1.082163617423   120.79436281   180.00013951
 H      5   4   3     1.083727574923   122.74660524   179.99997955
 H      7   6   5     1.083128781811   118.54907638     0.00000000
 H      8   7   6     1.081420369619   121.16274943   180.00002077
 H     13  12  11     1.081249686863   118.80643386     0.00000000
 H     14  13  12     1.081274794187   120.93518279   180.00011322

---------------------------
INTERNAL COORDINATES (A.U.)
---------------------------
 C      0   0   0     0.000000000000     0.00000000     0.00000000
 C      1   0   0     2.579618669217     0.00000000     0.00000000
 C      2   1   0     2.668475635240   120.65405474     0.00000000
 C      3   2   1     2.653542578522   123.18448403   179.99999548
 C      4   3   2     2.529796475728   126.53667483   179.99993029
 C      5   4   3     2.705141120143   117.80582306     0.00000000
 C      6   5   4     2.668371941671   120.65468373   180.00031337
 C      7   6   5     2.580144256457   121.08992386   180.00002878
 C      8   7   6     2.656666906288   119.96739963     0.00000000
 C      9   8   7     2.658705651021   129.21466480   179.99985058
 C     10   9   8     2.307229699428   128.38455854   180.00014667
 C     11  10   9     2.659407804629   128.13510071     0.00000000
 C     12  11  10     2.652997502393   128.62204290   179.99986207
 C     13  12  11     2.583766607389   120.28679399   179.99978107
 C     14  13  12     2.652317796738   120.11186410     0.00000000
 C     15  14  13     2.658191867008   128.86785381   180.00012098
 C     16  15  14     2.307342002469   128.50226321   179.99964904
 C     17  16  15     2.658058452976   128.19913909     0.00000000
 C     18  17  16     2.706087888888   109.53559171     0.00000000
 C     15  14  13     2.713245456895   121.56205315     0.00000000
 C     20  15  14     2.686912511468   118.33577083     0.00000000
 C      9   8   7     2.704168037030   121.12854471     0.00000000
 C      6   5   4     2.673022178767   119.35844359     0.00000000
 C      3   2   1     2.678343669215   120.51560303     0.00000000
 H      2   1   3     2.044992869023   120.79436281   180.00013951
 H      5   4   3     2.047948320383   122.74660524   179.99997955
 H      7   6   5     2.046816765391   118.54907638     0.00000000
 H      8   7   6     2.043588334225   121.16274943   180.00002077
 H     13  12  11     2.043265790560   118.80643386     0.00000000
 H     14  13  12     2.043313236526   120.93518279   180.00011322

---------------------
BASIS SET INFORMATION
---------------------
There are 2 groups of distinct atoms

 Group   1 Type C   : 11s6p2d1f contracted to 5s3p2d1f pattern {62111/411/11/1}
 Group   2 Type H   : 5s1p contracted to 3s1p pattern {311/1}

Atom   0C    basis set group =>   1
Atom   1C    basis set group =>   1
Atom   2C    basis set group =>   1
Atom   3C    basis set group =>   1
Atom   4C    basis set group =>   1
Atom   5C    basis set group =>   1
Atom   6C    basis set group =>   1
Atom   7C    basis set group =>   1
Atom   8C    basis set group =>   1
Atom   9C    basis set group =>   1
Atom  10C    basis set group =>   1
Atom  11C    basis set group =>   1
Atom  12C    basis set group =>   1
Atom  13C    basis set group =>   1
Atom  14C    basis set group =>   1
Atom  15C    basis set group =>   1
Atom  16C    basis set group =>   1
Atom  17C    basis set group =>   1
Atom  18C    basis set group =>   1
Atom  19C    basis set group =>   1
Atom  20C    basis set group =>   1
Atom  21C    basis set group =>   1
Atom  22C    basis set group =>   1
Atom  23C    basis set group =>   1
Atom  24H    basis set group =>   2
Atom  25H    basis set group =>   2
Atom  26H    basis set group =>   2
Atom  27H    basis set group =>   2
Atom  28H    basis set group =>   2
Atom  29H    basis set group =>   2
---------------------------------
AUXILIARY/J BASIS SET INFORMATION
---------------------------------
There are 2 groups of distinct atoms

 Group   1 Type C   : 12s5p4d2f1g contracted to 6s4p3d1f1g pattern {711111/2111/211/2/1}
 Group   2 Type H   : 5s2p1d contracted to 3s1p1d pattern {311/2/1}

Atom   0C    basis set group =>   1
Atom   1C    basis set group =>   1
Atom   2C    basis set group =>   1
Atom   3C    basis set group =>   1
Atom   4C    basis set group =>   1
Atom   5C    basis set group =>   1
Atom   6C    basis set group =>   1
Atom   7C    basis set group =>   1
Atom   8C    basis set group =>   1
Atom   9C    basis set group =>   1
Atom  10C    basis set group =>   1
Atom  11C    basis set group =>   1
Atom  12C    basis set group =>   1
Atom  13C    basis set group =>   1
Atom  14C    basis set group =>   1
Atom  15C    basis set group =>   1
Atom  16C    basis set group =>   1
Atom  17C    basis set group =>   1
Atom  18C    basis set group =>   1
Atom  19C    basis set group =>   1
Atom  20C    basis set group =>   1
Atom  21C    basis set group =>   1
Atom  22C    basis set group =>   1
Atom  23C    basis set group =>   1
Atom  24H    basis set group =>   2
Atom  25H    basis set group =>   2
Atom  26H    basis set group =>   2
Atom  27H    basis set group =>   2
Atom  28H    basis set group =>   2
Atom  29H    basis set group =>   2


           ************************************************************
           *        Program running with 3 parallel MPI-processes     *
           *              working on a common directory               *
           ************************************************************
------------------------------------------------------------------------------
                           ORCA GTO INTEGRAL CALCULATION
                           -- RI-GTO INTEGRALS CHOSEN --
------------------------------------------------------------------------------
------------------------------------------------------------------------------
                   ___                                                        
                  /   \      - P O W E R E D   B Y -                         
                 /     \                                                     
                 |  |  |   _    _      __       _____    __    __             
                 |  |  |  | |  | |    /  \     |  _  \  |  |  /  |          
                  \  \/   | |  | |   /    \    | | | |  |  | /  /          
                 / \  \   | |__| |  /  /\  \   | |_| |  |  |/  /          
                |  |  |   |  __  | /  /__\  \  |    /   |      \           
                |  |  |   | |  | | |   __   |  |    \   |  |\   \          
                \     /   | |  | | |  |  |  |  | |\  \  |  | \   \       
                 \___/    |_|  |_| |__|  |__|  |_| \__\ |__|  \__/        
                                                                              
                      - O R C A' S   B I G   F R I E N D -                    
                                      &                                       
                       - I N T E G R A L  F E E D E R -                       
                                                                              
 v1 FN, 2020, v2 2021                                                         
------------------------------------------------------------------------------


Reading SHARK input file five_six_two_one_ten_twelve_loss.SHARKINP.tmp ... ok
----------------------
SHARK INTEGRAL PACKAGE
----------------------

Number of atoms                             ...     30
Number of basis functions                   ...    780
Number of shells                            ...    288
Maximum angular momentum                    ...      3
Integral batch strategy                     ... SHARK/LIBINT Hybrid
RI-J (if used) integral strategy            ... SPLIT-RIJ (Revised 2003 algorithm where possible)
Printlevel                                  ...      1
Contraction scheme used                     ... SEGMENTED contraction
Coulomb Range Separation                    ... NOT USED
Exchange Range Separation                   ... NOT USED
Finite Nucleus Model                        ... NOT USED
Auxiliary Coulomb fitting basis             ... AVAILABLE
   # of basis functions in Aux-J            ...   1242
   # of shells in Aux-J                     ...    390
   Maximum angular momentum in Aux-J        ...      4
Auxiliary J/K fitting basis                 ... NOT available
Auxiliary Correlation fitting basis         ... NOT available
Auxiliary 'external' fitting basis          ... NOT available
Integral threshold                          ...     2.500000e-11
Primitive cut-off                           ...     2.500000e-12
Primitive pair pre-selection threshold      ...     2.500000e-12

Calculating pre-screening integrals         ... done (  0.1 sec) Dimension = 288
Organizing shell pair data                  ... done (  1.0 sec)
Shell pair information
Total number of shell pairs                 ...     41616
Shell pairs after pre-screening             ...     32537
Total number of primitive shell pairs       ...    133932
Primitive shell pairs kept                  ...     69776
          la=0 lb=0:   6875 shell pairs
          la=1 lb=0:   8826 shell pairs
          la=1 lb=1:   2735 shell pairs
          la=2 lb=0:   5004 shell pairs
          la=2 lb=1:   3177 shell pairs
          la=2 lb=2:    935 shell pairs
          la=3 lb=0:   2340 shell pairs
          la=3 lb=1:   1545 shell pairs
          la=3 lb=2:    874 shell pairs
          la=3 lb=3:    226 shell pairs

Calculating one electron integrals          ... done (  0.1 sec)
Calculating RI/J V-Matrix + Cholesky decomp.... done (  0.2 sec)
Calculating Nuclear repulsion               ... done (  0.0 sec) ENN=   1727.215910388418 Eh

SHARK setup successfully completed in   2.8 seconds

Maximum memory used throughout the entire GTOINT-calculation: 51.7 MB


           ************************************************************
           *        Program running with 3 parallel MPI-processes     *
           *              working on a common directory               *
           ************************************************************
-------------------------------------------------------------------------------
                                 ORCA SCF
-------------------------------------------------------------------------------

------------
SCF SETTINGS
------------
Hamiltonian:
 Density Functional     Method          .... DFT(GTOs)
 Exchange Functional    Exchange        .... M062X
 Correlation Functional Correlation     .... M062X
 Gradients option       PostSCFGGA      .... off
 Hybrid DFT is turned on
   Fraction HF Exchange ScalHFX         ....  0.540000
   Scaling of DF-GGA-X  ScalDFX         ....  0.460000
   Scaling of DF-GGA-C  ScalDFC         ....  1.000000
   Scaling of DF-LDA-C  ScalLDAC        ....  1.000000
   Perturbative correction              ....  0.000000
   Density functional embedding theory  .... OFF
 RI-approximation to the Coulomb term is turned on
   Number of AuxJ basis functions       .... 1242
   RIJ-COSX (HFX calculated with COS-X)).... on


General Settings:
 Integral files         IntName         .... five_six_two_one_ten_twelve_loss
 Hartree-Fock type      HFTyp           .... RHF
 Total Charge           Charge          ....    0
 Multiplicity           Mult            ....    1
 Number of Electrons    NEL             ....  150
 Basis Dimension        Dim             ....  780
 Nuclear Repulsion      ENuc            ....   1727.2159103884 Eh

Convergence Acceleration:
 DIIS                   CNVDIIS         .... on
   Start iteration      DIISMaxIt       ....    12
   Startup error        DIISStart       ....  0.200000
   # of expansion vecs  DIISMaxEq       ....     5
   Bias factor          DIISBfac        ....   1.050
   Max. coefficient     DIISMaxC        ....  10.000
 Trust-Rad. Augm. Hess. CNVTRAH         .... auto
   Auto Start mean grad. ratio tolernc. ....  1.125000
   Auto Start start iteration           ....    20
   Auto Start num. interpolation iter.  ....    10
   Max. Number of Micro iterations      ....    16
   Max. Number of Macro iterations      .... Maxiter - #DIIS iter
   Number of Davidson start vectors     ....     2
   Converg. threshold I  (grad. norm)   ....   1.000e-05
   Converg. threshold II (energy diff.) ....   1.000e-08
   Grad. Scal. Fac. for Micro threshold ....   0.100
   Minimum threshold for Micro iter.    ....   0.010
   NR start threshold (gradient norm)   ....   0.001
   Initial trust radius                 ....   0.400
   Minimum AH scaling param. (alpha)    ....   1.000
   Maximum AH scaling param. (alpha)    .... 1000.000
   Orbital update algorithm             .... Taylor
   White noise on init. David. guess    .... on
   Maximum white noise                  ....   0.010
   Quad. conv. algorithm                .... NR
 SOSCF                  CNVSOSCF        .... on
   Start iteration      SOSCFMaxIt      ....   150
   Startup grad/error   SOSCFStart      ....  0.003300
 Level Shifting         CNVShift        .... on
   Level shift para.    LevelShift      ....    0.2500
   Turn off err/grad.   ShiftErr        ....    0.0010
 Zerner damping         CNVZerner       .... off
 Static damping         CNVDamp         .... on
   Fraction old density DampFac         ....    0.7000
   Max. Damping (<1)    DampMax         ....    0.9800
   Min. Damping (>=0)   DampMin         ....    0.0000
   Turn off err/grad.   DampErr         ....    0.1000
 Fernandez-Rico         CNVRico         .... off

SCF Procedure:
 Maximum # iterations   MaxIter         ....   125
 SCF integral mode      SCFMode         .... Direct
   Integral package                     .... SHARK and LIBINT hybrid scheme
 Reset frequency        DirectResetFreq ....    20
 Integral Threshold     Thresh          ....  2.500e-11 Eh
 Primitive CutOff       TCut            ....  2.500e-12 Eh

Convergence Tolerance:
 Convergence Check Mode ConvCheckMode   .... Total+1el-Energy
 Convergence forced     ConvForced      .... 0
 Energy Change          TolE            ....  1.000e-08 Eh
 1-El. energy change                    ....  1.000e-05 Eh
 Orbital Gradient       TolG            ....  1.000e-05
 Orbital Rotation angle TolX            ....  1.000e-05
 DIIS Error             TolErr          ....  5.000e-07


Diagonalization of the overlap matrix:
Smallest eigenvalue                        ... 7.574e-07
Time for diagonalization                   ...    0.061 sec
Threshold for overlap eigenvalues          ... 1.000e-08
Number of eigenvalues below threshold      ... 0
Time for construction of square roots      ...    0.051 sec
Total time needed                          ...    0.114 sec

Time for model grid setup =    0.388 sec

------------------------------
INITIAL GUESS: MODEL POTENTIAL
------------------------------
Loading Hartree-Fock densities                     ... done
Calculating cut-offs                               ... done
Initializing the effective Hamiltonian             ... done
Setting up the integral package (SHARK)            ... done
Starting the Coulomb interaction                   ... done (   0.9 sec)
Reading the grid                                   ... done
Mapping shells                                     ... done
Starting the XC term evaluation                    ... done (   1.0 sec)
  promolecular density results
     # of electrons  =    149.982808191
     EX              =   -124.527974253
     EC              =     -5.081203587
     EX+EC           =   -129.609177840
Transforming the Hamiltonian                       ... done (   0.0 sec)
Diagonalizing the Hamiltonian                      ... done (   0.1 sec)
Back transforming the eigenvectors                 ... done (   0.0 sec)
Now organizing SCF variables                       ... done
                      ------------------
                      INITIAL GUESS DONE (   2.4 sec)
                      ------------------
-------------------
DFT GRID GENERATION
-------------------

General Integration Accuracy     IntAcc      ... 4.388
Radial Grid Type                 RadialGrid  ... OptM3 with GC (2021)
Angular Grid (max. ang.)         AngularGrid ... 4 (Lebedev-302)
Angular grid pruning method      GridPruning ... 4 (adaptive)
Weight generation scheme         WeightScheme... Becke
Basis function cutoff            BFCut       ... 1.0000e-11
Integration weight cutoff        WCut        ... 1.0000e-14
Angular grids for H and He will be reduced by one unit
Partially contracted basis set               ... off
Rotationally invariant grid construction     ... off

Total number of grid points                  ...   161651
Total number of batches                      ...     2539
Average number of points per batch           ...       63
Average number of grid points per atom       ...     5388
Time for grid setup =    1.357 sec

--------------------
COSX GRID GENERATION
--------------------

GRIDX 1
-------
General Integration Accuracy     IntAcc      ... 3.816
Radial Grid Type                 RadialGrid  ... OptM3 with GC (2021)
Angular Grid (max. ang.)         AngularGrid ... 1 (Lebedev-50)
Angular grid pruning method      GridPruning ... 4 (adaptive)
Weight generation scheme         WeightScheme... Becke
Basis function cutoff            BFCut       ... 1.0000e-11
Integration weight cutoff        WCut        ... 1.0000e-14
Angular grids for H and He will be reduced by one unit
Partially contracted basis set               ... on
Rotationally invariant grid construction     ... off

Total number of grid points                  ...    20511
Total number of batches                      ...      335
Average number of points per batch           ...       61
Average number of grid points per atom       ...      684
UseSFitting                                  ... on

GRIDX 2
-------
General Integration Accuracy     IntAcc      ... 4.020
Radial Grid Type                 RadialGrid  ... OptM3 with GC (2021)
Angular Grid (max. ang.)         AngularGrid ... 2 (Lebedev-110)
Angular grid pruning method      GridPruning ... 4 (adaptive)
Weight generation scheme         WeightScheme... Becke
Basis function cutoff            BFCut       ... 1.0000e-11
Integration weight cutoff        WCut        ... 1.0000e-14
Angular grids for H and He will be reduced by one unit
Partially contracted basis set               ... on
Rotationally invariant grid construction     ... off

Total number of grid points                  ...    46257
Total number of batches                      ...      739
Average number of points per batch           ...       62
Average number of grid points per atom       ...     1542
UseSFitting                                  ... on

GRIDX 3
-------
General Integration Accuracy     IntAcc      ... 4.338
Radial Grid Type                 RadialGrid  ... OptM3 with GC (2021)
Angular Grid (max. ang.)         AngularGrid ... 3 (Lebedev-194)
Angular grid pruning method      GridPruning ... 4 (adaptive)
Weight generation scheme         WeightScheme... Becke
Basis function cutoff            BFCut       ... 1.0000e-11
Integration weight cutoff        WCut        ... 1.0000e-14
Angular grids for H and He will be reduced by one unit
Partially contracted basis set               ... on
Rotationally invariant grid construction     ... off

Total number of grid points                  ...   102037
Total number of batches                      ...     1608
Average number of points per batch           ...       63
Average number of grid points per atom       ...     3401
UseSFitting                                  ... on

Time for X-Grid setup             =    2.938 sec

--------------
SCF ITERATIONS
--------------
ITER       Energy         Delta-E        Max-DP      RMS-DP      [F,P]     Damp
               ***  Starting incremental Fock matrix formation  ***
  0   -917.2675879618   0.000000000000 0.07222699  0.00132192  0.1515664 0.7000
  1   -917.4705867211  -0.202998759331 0.07383412  0.00112311  0.0808997 0.7000
                               ***Turning on DIIS***
  2   -917.5521140358  -0.081527314719 0.21058638  0.00278964  0.0658613 0.0000
  3   -917.7137815293  -0.161667493522 0.04812338  0.00073949  0.0373313 0.0000
  4   -917.7286369707  -0.014855441307 0.01767454  0.00022551  0.0470130 0.0000
  5   -917.7348274807  -0.006190509998 0.00815975  0.00009790  0.0054803 0.0000
                      *** Initiating the SOSCF procedure ***
                           *** Shutting down DIIS ***
                      *** Re-Reading the Fockian *** 
                      *** Removing any level shift *** 
ITER      Energy       Delta-E        Grad      Rot      Max-DP    RMS-DP
  6   -917.73508245  -0.0002549702  0.001430  0.001430  0.003273  0.000050
               *** Restarting incremental Fock matrix formation ***
  7   -917.73482456   0.0002578940  0.000713  0.002367  0.062182  0.000802
  8   -917.73484021  -0.0000156566  0.002450  0.017831  0.204266  0.001667
  9   -917.73479091   0.0000493046  0.003716  0.008646  0.141325  0.001100
 10   -917.73485564  -0.0000647352  0.001664  0.004001  0.106507  0.001103
 11   -917.73487466  -0.0000190157  0.000769  0.003818  0.049301  0.000592
 12   -917.73488690  -0.0000122359  0.000117  0.000462  0.009722  0.000095
 13   -917.73488667   0.0000002289  0.000140  0.000539  0.012355  0.000122
 14   -917.73488797  -0.0000013076  0.000039  0.000116  0.000220  0.000003
 15   -917.73488793   0.0000000451  0.000065  0.000075  0.000792  0.000008
 16   -917.73488800  -0.0000000666  0.000004  0.000016  0.000141  0.000002
 17   -917.73488801  -0.0000000112  0.000004  0.000011  0.000111  0.000001
                  ***Gradient check signals convergence***
              ***Rediagonalizing the Fockian in SOSCF/NRSCF***

               *****************************************************
               *                     SUCCESS                       *
               *           SCF CONVERGED AFTER  18 CYCLES          *
               *****************************************************

Old exchange energy                            =    -68.251415570 Eh
New exchange energy                            =    -68.251266577 Eh
Exchange energy change after final integration =      0.000148993 Eh
Total energy after final integration           =   -917.734739028 Eh
Final COS-X integration done in                =    67.426 sec

----------------
TOTAL SCF ENERGY
----------------

Total Energy       :         -917.73473903 Eh          -24972.83184 eV

Components:
Nuclear Repulsion  :         1727.21591039 Eh           46999.93435 eV
Electronic Energy  :        -2644.95064942 Eh          -71972.76620 eV
One Electron Energy:        -4668.26145327 Eh         -127029.85222 eV
Two Electron Energy:         2023.31080385 Eh           55057.08602 eV
Max COSX asymmetry :            0.00000525 Eh               0.00014 eV

Virial components:
Potential Energy   :        -1830.93340235 Eh          -49822.23079 eV
Kinetic Energy     :          913.19866332 Eh           24849.39895 eV
Virial Ratio       :            2.00496724


DFT components:
N(Alpha)           :       75.000134955177 electrons
N(Beta)            :       75.000134955177 electrons
N(Total)           :      150.000269910353 electrons
E(XC)              :      -63.835908316977 Eh       
DFET-embed. en.    :        0.000000000000 Eh       

---------------
SCF CONVERGENCE
---------------

  Last Energy change         ...   -1.3625e-08  Tolerance :   1.0000e-08
  Last MAX-Density change    ...    2.1094e-15  Tolerance :   1.0000e-07
  Last RMS-Density change    ...    1.2125e-17  Tolerance :   5.0000e-09
  Last Orbital Gradient      ...    1.0042e-06  Tolerance :   1.0000e-05
  Last Orbital Rotation      ...    9.9153e-06  Tolerance :   1.0000e-05

             **** THE GBW FILE WAS UPDATED (five_six_two_one_ten_twelve_loss.gbw) ****
             **** DENSITY five_six_two_one_ten_twelve_loss.scfp WAS UPDATED ****
             **** ENERGY FILE WAS UPDATED (five_six_two_one_ten_twelve_loss.en.tmp) ****
             **** THE GBW FILE WAS UPDATED (five_six_two_one_ten_twelve_loss.gbw) ****
             **** DENSITY five_six_two_one_ten_twelve_loss.scfp WAS UPDATED ****
----------------
ORBITAL ENERGIES
----------------

  NO   OCC          E(Eh)            E(eV) 
   0   2.0000     -10.601858      -288.4912 
   1   2.0000     -10.600156      -288.4449 
   2   2.0000     -10.597336      -288.3682 
   3   2.0000     -10.597203      -288.3645 
   4   2.0000     -10.596798      -288.3535 
   5   2.0000     -10.594943      -288.3031 
   6   2.0000     -10.590268      -288.1758 
   7   2.0000     -10.589692      -288.1602 
   8   2.0000     -10.589052      -288.1428 
   9   2.0000     -10.587203      -288.0924 
  10   2.0000     -10.585770      -288.0534 
  11   2.0000     -10.585058      -288.0341 
  12   2.0000     -10.582432      -287.9626 
  13   2.0000     -10.581866      -287.9472 
  14   2.0000     -10.580230      -287.9027 
  15   2.0000     -10.574820      -287.7555 
  16   2.0000     -10.569963      -287.6233 
  17   2.0000     -10.567896      -287.5671 
  18   2.0000     -10.567822      -287.5651 
  19   2.0000     -10.566948      -287.5413 
  20   2.0000     -10.560750      -287.3726 
  21   2.0000     -10.558236      -287.3042 
  22   2.0000     -10.557862      -287.2940 
  23   2.0000     -10.555232      -287.2225 
  24   2.0000      -1.042941       -28.3799 
  25   2.0000      -1.005027       -27.3482 
  26   2.0000      -1.004128       -27.3237 
  27   2.0000      -0.953649       -25.9501 
  28   2.0000      -0.952076       -25.9073 
  29   2.0000      -0.927880       -25.2489 
  30   2.0000      -0.901334       -24.5265 
  31   2.0000      -0.880985       -23.9728 
  32   2.0000      -0.861617       -23.4458 
  33   2.0000      -0.852199       -23.1895 
  34   2.0000      -0.828960       -22.5572 
  35   2.0000      -0.823798       -22.4167 
  36   2.0000      -0.746071       -20.3016 
  37   2.0000      -0.742392       -20.2015 
  38   2.0000      -0.731284       -19.8992 
  39   2.0000      -0.719067       -19.5668 
  40   2.0000      -0.714165       -19.4334 
  41   2.0000      -0.664989       -18.0953 
  42   2.0000      -0.630752       -17.1636 
  43   2.0000      -0.627820       -17.0839 
  44   2.0000      -0.617490       -16.8028 
  45   2.0000      -0.605370       -16.4729 
  46   2.0000      -0.597744       -16.2654 
  47   2.0000      -0.562991       -15.3198 
  48   2.0000      -0.556252       -15.1364 
  49   2.0000      -0.546964       -14.8837 
  50   2.0000      -0.536151       -14.5894 
  51   2.0000      -0.532091       -14.4789 
  52   2.0000      -0.525235       -14.2924 
  53   2.0000      -0.517429       -14.0800 
  54   2.0000      -0.503574       -13.7030 
  55   2.0000      -0.495111       -13.4727 
  56   2.0000      -0.487575       -13.2676 
  57   2.0000      -0.486511       -13.2386 
  58   2.0000      -0.472435       -12.8556 
  59   2.0000      -0.468884       -12.7590 
  60   2.0000      -0.455853       -12.4044 
  61   2.0000      -0.435059       -11.8386 
  62   2.0000      -0.427075       -11.6213 
  63   2.0000      -0.424396       -11.5484 
  64   2.0000      -0.423714       -11.5298 
  65   2.0000      -0.404947       -11.0192 
  66   2.0000      -0.357403        -9.7254 
  67   2.0000      -0.347884        -9.4664 
  68   2.0000      -0.340078        -9.2540 
  69   2.0000      -0.337224        -9.1763 
  70   2.0000      -0.330934        -9.0052 
  71   2.0000      -0.327407        -8.9092 
  72   2.0000      -0.273984        -7.4555 
  73   2.0000      -0.272597        -7.4177 
  74   2.0000      -0.248675        -6.7668 
  75   0.0000      -0.158689        -4.3181 
  76   0.0000      -0.059288        -1.6133 
  77   0.0000      -0.050852        -1.3838 
  78   0.0000      -0.047900        -1.3034 
  79   0.0000      -0.041994        -1.1427 
  80   0.0000      -0.010805        -0.2940 
  81   0.0000      -0.001720        -0.0468 
  82   0.0000       0.005752         0.1565 
  83   0.0000       0.047747         1.2993 
  84   0.0000       0.076837         2.0909 
  85   0.0000       0.088381         2.4050 
  86   0.0000       0.090504         2.4627 
  87   0.0000       0.101435         2.7602 
  88   0.0000       0.108909         2.9636 
  89   0.0000       0.112557         3.0628 
  90   0.0000       0.119172         3.2428 
  91   0.0000       0.121011         3.2929 
  92   0.0000       0.124741         3.3944 
  93   0.0000       0.130057         3.5390 
  94   0.0000       0.134324         3.6552 
  95   0.0000       0.136892         3.7250 
  96   0.0000       0.166686         4.5357 
  97   0.0000       0.172570         4.6959 
  98   0.0000       0.175297         4.7701 
  99   0.0000       0.185383         5.0445 
 100   0.0000       0.186007         5.0615 
 101   0.0000       0.197267         5.3679 
 102   0.0000       0.197949         5.3865 
 103   0.0000       0.201640         5.4869 
 104   0.0000       0.202457         5.5091 
 105   0.0000       0.204532         5.5656 
 106   0.0000       0.222324         6.0497 
 107   0.0000       0.224221         6.1014 
 108   0.0000       0.226940         6.1754 
 109   0.0000       0.227835         6.1997 
 110   0.0000       0.238419         6.4877 
 111   0.0000       0.242376         6.5954 
 112   0.0000       0.248961         6.7746 
 113   0.0000       0.252905         6.8819 
 114   0.0000       0.256481         6.9792 
 115   0.0000       0.261221         7.1082 
 116   0.0000       0.261779         7.1234 
 117   0.0000       0.267750         7.2859 
 118   0.0000       0.272371         7.4116 
 119   0.0000       0.275359         7.4929 
 120   0.0000       0.278934         7.5902 
 121   0.0000       0.284853         7.7512 
 122   0.0000       0.287908         7.8344 
 123   0.0000       0.291531         7.9330 
 124   0.0000       0.294981         8.0269 
 125   0.0000       0.297453         8.0941 
 126   0.0000       0.302471         8.2306 
 127   0.0000       0.311211         8.4685 
 128   0.0000       0.313255         8.5241 
 129   0.0000       0.314923         8.5695 
 130   0.0000       0.319269         8.6878 
 131   0.0000       0.322364         8.7720 
 132   0.0000       0.326338         8.8801 
 133   0.0000       0.329245         8.9592 
 134   0.0000       0.333588         9.0774 
 135   0.0000       0.342358         9.3160 
 136   0.0000       0.346207         9.4208 
 137   0.0000       0.349701         9.5158 
 138   0.0000       0.356499         9.7008 
 139   0.0000       0.359192         9.7741 
 140   0.0000       0.359972         9.7953 
 141   0.0000       0.368723        10.0335 
 142   0.0000       0.371398        10.1063 
 143   0.0000       0.374155        10.1813 
 144   0.0000       0.378468        10.2986 
 145   0.0000       0.378824        10.3083 
 146   0.0000       0.381273        10.3750 
 147   0.0000       0.384105        10.4520 
 148   0.0000       0.387225        10.5369 
 149   0.0000       0.392658        10.6848 
 150   0.0000       0.400010        10.8848 
 151   0.0000       0.407450        11.0873 
 152   0.0000       0.409801        11.1512 
 153   0.0000       0.418836        11.3971 
 154   0.0000       0.419580        11.4174 
 155   0.0000       0.421659        11.4739 
 156   0.0000       0.426856        11.6153 
 157   0.0000       0.440564        11.9883 
 158   0.0000       0.442370        12.0375 
 159   0.0000       0.452152        12.3037 
 160   0.0000       0.454980        12.3806 
 161   0.0000       0.459480        12.5031 
 162   0.0000       0.463119        12.6021 
 163   0.0000       0.468226        12.7411 
 164   0.0000       0.473018        12.8715 
 165   0.0000       0.477596        12.9961 
 166   0.0000       0.488446        13.2913 
 167   0.0000       0.491895        13.3851 
 168   0.0000       0.492949        13.4138 
 169   0.0000       0.503777        13.7085 
 170   0.0000       0.507472        13.8090 
 171   0.0000       0.509451        13.8629 
 172   0.0000       0.510986        13.9046 
 173   0.0000       0.522022        14.2049 
 174   0.0000       0.536079        14.5874 
 175   0.0000       0.539446        14.6791 
 176   0.0000       0.540008        14.6944 
 177   0.0000       0.544284        14.8107 
 178   0.0000       0.544520        14.8172 
 179   0.0000       0.546452        14.8697 
 180   0.0000       0.550259        14.9733 
 181   0.0000       0.562552        15.3078 
 182   0.0000       0.564438        15.3591 
 183   0.0000       0.569968        15.5096 
 184   0.0000       0.579323        15.7642 
 185   0.0000       0.583955        15.8902 
 186   0.0000       0.601146        16.3580 
 187   0.0000       0.605795        16.4845 
 188   0.0000       0.622794        16.9471 
 189   0.0000       0.625176        17.0119 
 190   0.0000       0.626524        17.0486 
 191   0.0000       0.627554        17.0766 
 192   0.0000       0.628426        17.1003 
 193   0.0000       0.637489        17.3470 
 194   0.0000       0.642094        17.4723 
 195   0.0000       0.647075        17.6078 
 196   0.0000       0.651321        17.7233 
 197   0.0000       0.653188        17.7742 
 198   0.0000       0.660057        17.9611 
 199   0.0000       0.664705        18.0875 
 200   0.0000       0.671013        18.2592 
 201   0.0000       0.679630        18.4937 
 202   0.0000       0.681449        18.5432 
 203   0.0000       0.682537        18.5728 
 204   0.0000       0.689626        18.7657 
 205   0.0000       0.693613        18.8742 
 206   0.0000       0.706574        19.2269 
 207   0.0000       0.716387        19.4939 
 208   0.0000       0.719926        19.5902 
 209   0.0000       0.720928        19.6174 
 210   0.0000       0.724287        19.7089 
 211   0.0000       0.729214        19.8429 
 212   0.0000       0.742328        20.1998 
 213   0.0000       0.749686        20.4000 
 214   0.0000       0.755947        20.5704 
 215   0.0000       0.759891        20.6777 
 216   0.0000       0.764123        20.7929 
 217   0.0000       0.767045        20.8724 
 218   0.0000       0.770102        20.9555 
 219   0.0000       0.778440        21.1824 
 220   0.0000       0.784913        21.3586 
 221   0.0000       0.787166        21.4199 
 222   0.0000       0.791243        21.5308 
 223   0.0000       0.793915        21.6035 
 224   0.0000       0.795533        21.6475 
 225   0.0000       0.800448        21.7813 
 226   0.0000       0.808156        21.9911 
 227   0.0000       0.816518        22.2186 
 228   0.0000       0.818095        22.2615 
 229   0.0000       0.821843        22.3635 
 230   0.0000       0.833939        22.6926 
 231   0.0000       0.840446        22.8697 
 232   0.0000       0.842366        22.9219 
 233   0.0000       0.851487        23.1701 
 234   0.0000       0.854419        23.2499 
 235   0.0000       0.861509        23.4429 
 236   0.0000       0.865448        23.5500 
 237   0.0000       0.874511        23.7966 
 238   0.0000       0.877642        23.8818 
 239   0.0000       0.882161        24.0048 
 240   0.0000       0.893062        24.3015 
 241   0.0000       0.893619        24.3166 
 242   0.0000       0.898990        24.4628 
 243   0.0000       0.904134        24.6027 
 244   0.0000       0.907783        24.7020 
 245   0.0000       0.909798        24.7569 
 246   0.0000       0.914664        24.8893 
 247   0.0000       0.936164        25.4743 
 248   0.0000       0.944939        25.7131 
 249   0.0000       0.948164        25.8008 
 250   0.0000       0.950779        25.8720 
 251   0.0000       0.952035        25.9062 
 252   0.0000       0.966341        26.2955 
 253   0.0000       0.972320        26.4582 
 254   0.0000       0.992713        27.0131 
 255   0.0000       0.993115        27.0240 
 256   0.0000       1.000614        27.2281 
 257   0.0000       1.011096        27.5133 
 258   0.0000       1.020464        27.7682 
 259   0.0000       1.026915        27.9438 
 260   0.0000       1.050055        28.5734 
 261   0.0000       1.056738        28.7553 
 262   0.0000       1.061604        28.8877 
 263   0.0000       1.066888        29.0315 
 264   0.0000       1.070523        29.1304 
 265   0.0000       1.070607        29.1327 
 266   0.0000       1.076323        29.2882 
 267   0.0000       1.083014        29.4703 
 268   0.0000       1.097799        29.8726 
 269   0.0000       1.103571        30.0297 
 270   0.0000       1.107382        30.1334 
 271   0.0000       1.145643        31.1745 
 272   0.0000       1.149597        31.2821 
 273   0.0000       1.151870        31.3440 
 274   0.0000       1.155465        31.4418 
 275   0.0000       1.167911        31.7805 
 276   0.0000       1.189403        32.3653 
 277   0.0000       1.197566        32.5874 
 278   0.0000       1.205435        32.8016 
 279   0.0000       1.205850        32.8129 
 280   0.0000       1.213614        33.0241 
 281   0.0000       1.220656        33.2157 
 282   0.0000       1.228865        33.4391 
 283   0.0000       1.231435        33.5090 
 284   0.0000       1.233864        33.5752 
 285   0.0000       1.240500        33.7557 
 286   0.0000       1.243939        33.8493 
 287   0.0000       1.245631        33.8954 
 288   0.0000       1.249386        33.9975 
 289   0.0000       1.255449        34.1625 
 290   0.0000       1.267047        34.4781 
 291   0.0000       1.278038        34.7772 
 292   0.0000       1.289408        35.0866 
 293   0.0000       1.291928        35.1551 
 294   0.0000       1.302461        35.4418 
 295   0.0000       1.305016        35.5113 
 296   0.0000       1.312584        35.7172 
 297   0.0000       1.315626        35.8000 
 298   0.0000       1.318523        35.8788 
 299   0.0000       1.324503        36.0416 
 300   0.0000       1.325921        36.0801 
 301   0.0000       1.344369        36.5821 
 302   0.0000       1.353781        36.8382 
 303   0.0000       1.355811        36.8935 
 304   0.0000       1.363059        37.0907 
 305   0.0000       1.371118        37.3100 
 306   0.0000       1.382869        37.6298 
 307   0.0000       1.384691        37.6794 
 308   0.0000       1.397812        38.0364 
 309   0.0000       1.402457        38.1628 
 310   0.0000       1.416644        38.5488 
 311   0.0000       1.422028        38.6953 
 312   0.0000       1.423351        38.7314 
 313   0.0000       1.425012        38.7766 
 314   0.0000       1.428341        38.8671 
 315   0.0000       1.432408        38.9778 
 316   0.0000       1.437923        39.1279 
 317   0.0000       1.441148        39.2156 
 318   0.0000       1.449128        39.4328 
 319   0.0000       1.472927        40.0804 
 320   0.0000       1.477709        40.2105 
 321   0.0000       1.485132        40.4125 
 322   0.0000       1.501481        40.8574 
 323   0.0000       1.510621        41.1061 
 324   0.0000       1.520910        41.3861 
 325   0.0000       1.529252        41.6131 
 326   0.0000       1.530040        41.6345 
 327   0.0000       1.531421        41.6721 
 328   0.0000       1.534824        41.7647 
 329   0.0000       1.540909        41.9303 
 330   0.0000       1.562036        42.5052 
 331   0.0000       1.570361        42.7317 
 332   0.0000       1.575421        42.8694 
 333   0.0000       1.577709        42.9316 
 334   0.0000       1.581425        43.0328 
 335   0.0000       1.585825        43.1525 
 336   0.0000       1.590929        43.2914 
 337   0.0000       1.604410        43.6582 
 338   0.0000       1.606495        43.7150 
 339   0.0000       1.615439        43.9583 
 340   0.0000       1.618294        44.0360 
 341   0.0000       1.639249        44.6062 
 342   0.0000       1.643801        44.7301 
 343   0.0000       1.646770        44.8109 
 344   0.0000       1.652701        44.9723 
 345   0.0000       1.654188        45.0127 
 346   0.0000       1.659535        45.1582 
 347   0.0000       1.663249        45.2593 
 348   0.0000       1.663536        45.2671 
 349   0.0000       1.670144        45.4469 
 350   0.0000       1.686742        45.8986 
 351   0.0000       1.693046        46.0701 
 352   0.0000       1.699517        46.2462 
 353   0.0000       1.708590        46.4931 
 354   0.0000       1.709807        46.5262 
 355   0.0000       1.726567        46.9823 
 356   0.0000       1.727563        47.0094 
 357   0.0000       1.735161        47.2161 
 358   0.0000       1.745726        47.5036 
 359   0.0000       1.751806        47.6691 
 360   0.0000       1.757160        47.8147 
 361   0.0000       1.762721        47.9661 
 362   0.0000       1.777095        48.3572 
 363   0.0000       1.783997        48.5450 
 364   0.0000       1.792421        48.7743 
 365   0.0000       1.807805        49.1929 
 366   0.0000       1.829338        49.7788 
 367   0.0000       1.831109        49.8270 
 368   0.0000       1.842831        50.1460 
 369   0.0000       1.852909        50.4202 
 370   0.0000       1.882195        51.2171 
 371   0.0000       1.889726        51.4220 
 372   0.0000       1.895941        51.5912 
 373   0.0000       1.900211        51.7074 
 374   0.0000       1.904261        51.8176 
 375   0.0000       1.914693        52.1014 
 376   0.0000       1.930890        52.5422 
 377   0.0000       1.933646        52.6172 
 378   0.0000       1.955913        53.2231 
 379   0.0000       1.962444        53.4008 
 380   0.0000       1.975704        53.7616 
 381   0.0000       1.976936        53.7952 
 382   0.0000       1.991690        54.1966 
 383   0.0000       2.008308        54.6488 
 384   0.0000       2.011842        54.7450 
 385   0.0000       2.017350        54.8949 
 386   0.0000       2.024034        55.0768 
 387   0.0000       2.034416        55.3593 
 388   0.0000       2.036022        55.4030 
 389   0.0000       2.050224        55.7894 
 390   0.0000       2.066397        56.2295 
 391   0.0000       2.074405        56.4474 
 392   0.0000       2.085620        56.7526 
 393   0.0000       2.111318        57.4519 
 394   0.0000       2.121131        57.7189 
 395   0.0000       2.130105        57.9631 
 396   0.0000       2.133280        58.0495 
 397   0.0000       2.150059        58.5061 
 398   0.0000       2.151874        58.5555 
 399   0.0000       2.153909        58.6109 
 400   0.0000       2.158963        58.7484 
 401   0.0000       2.169317        59.0301 
 402   0.0000       2.190261        59.6000 
 403   0.0000       2.202584        59.9354 
 404   0.0000       2.219470        60.3949 
 405   0.0000       2.224862        60.5416 
 406   0.0000       2.231009        60.7088 
 407   0.0000       2.236880        60.8686 
 408   0.0000       2.238411        60.9102 
 409   0.0000       2.243214        61.0410 
 410   0.0000       2.250229        61.2318 
 411   0.0000       2.255654        61.3795 
 412   0.0000       2.257405        61.4271 
 413   0.0000       2.280195        62.0473 
 414   0.0000       2.282644        62.1139 
 415   0.0000       2.287349        62.2419 
 416   0.0000       2.288807        62.2816 
 417   0.0000       2.302954        62.6666 
 418   0.0000       2.303261        62.6749 
 419   0.0000       2.325738        63.2865 
 420   0.0000       2.331820        63.4520 
 421   0.0000       2.337366        63.6030 
 422   0.0000       2.349984        63.9463 
 423   0.0000       2.365386        64.3654 
 424   0.0000       2.373326        64.5815 
 425   0.0000       2.395651        65.1890 
 426   0.0000       2.410519        65.5936 
 427   0.0000       2.433845        66.2283 
 428   0.0000       2.436901        66.3114 
 429   0.0000       2.445870        66.5555 
 430   0.0000       2.456354        66.8408 
 431   0.0000       2.466672        67.1216 
 432   0.0000       2.479370        67.4671 
 433   0.0000       2.483314        67.5744 
 434   0.0000       2.492169        67.8154 
 435   0.0000       2.525918        68.7337 
 436   0.0000       2.532628        68.9163 
 437   0.0000       2.537694        69.0542 
 438   0.0000       2.554301        69.5061 
 439   0.0000       2.558413        69.6180 
 440   0.0000       2.561059        69.6900 
 441   0.0000       2.577174        70.1285 
 442   0.0000       2.597473        70.6808 
 443   0.0000       2.606560        70.9281 
 444   0.0000       2.607265        70.9473 
 445   0.0000       2.609914        71.0194 
 446   0.0000       2.616372        71.1951 
 447   0.0000       2.620587        71.3098 
 448   0.0000       2.631201        71.5986 
 449   0.0000       2.637100        71.7591 
 450   0.0000       2.643847        71.9427 
 451   0.0000       2.648077        72.0578 
 452   0.0000       2.655843        72.2691 
 453   0.0000       2.668213        72.6058 
 454   0.0000       2.672803        72.7307 
 455   0.0000       2.674015        72.7637 
 456   0.0000       2.685492        73.0759 
 457   0.0000       2.691715        73.2453 
 458   0.0000       2.696983        73.3886 
 459   0.0000       2.708440        73.7004 
 460   0.0000       2.710092        73.7454 
 461   0.0000       2.717637        73.9507 
 462   0.0000       2.735436        74.4350 
[...]
|  sn= 3 | S(rot)=       0.38919270 Eh    244.22 kcal/mol|
|  sn= 4 | S(rot)=       0.38372652 Eh    240.79 kcal/mol|
|  sn= 5 | S(rot)=       0.37948661 Eh    238.13 kcal/mol|
|  sn= 6 | S(rot)=       0.37602236 Eh    235.96 kcal/mol|
|  sn= 7 | S(rot)=       0.37309337 Eh    234.12 kcal/mol|
|  sn= 8 | S(rot)=       0.37055617 Eh    232.53 kcal/mol|
|  sn= 9 | S(rot)=       0.36831820 Eh    231.12 kcal/mol|
|  sn=10 | S(rot)=       0.36631627 Eh    229.87 kcal/mol|
|  sn=11 | S(rot)=       0.36450530 Eh    228.73 kcal/mol|
|  sn=12 | S(rot)=       0.36285201 Eh    227.69 kcal/mol|
 --------------------------------------------------------


-------------------
GIBBS FREE ENERGY
-------------------

The Gibbs free energy is G = H - T*S

Total enthalpy                    ...   -916.06409321 Eh 
Total entropy correction          ...     -5.09681556 Eh  -3198.29 kcal/mol
-----------------------------------------------------------------------
Final Gibbs free energy         ...   -921.16090877 Eh

For completeness - the Gibbs free energy minus the electronic energy
G-E(el)                           ...     -3.41155473 Eh  -2140.78 kcal/mol


The first frequency considered to be a vibration is 6
The total number of vibrations considered is 84


--------------------------
THERMOCHEMISTRY AT 8000.00K
--------------------------

Temperature         ... 8000.00 K
Pressure            ... 1.00 atm
Total Mass          ... 294.31 AMU

Throughout the following assumptions are being made:
  (1) The electronic state is orbitally nondegenerate
  (2) There are no thermally accessible electronically excited states
  (3) Hindered rotations indicated by low frequency modes are not
      treated as such but are treated as vibrations and this may
      cause some error
  (4) All equations used are the standard statistical mechanics
      equations for an ideal gas
  (5) All vibrations are strictly harmonic

freq.      74.98  E(vib)   ...      15.79 
freq.      87.09  E(vib)   ...      15.77 
freq.     123.07  E(vib)   ...      15.72 
freq.     168.60  E(vib)   ...      15.66 
freq.     196.08  E(vib)   ...      15.62 
freq.     243.99  E(vib)   ...      15.55 
freq.     274.76  E(vib)   ...      15.51 
freq.     302.19  E(vib)   ...      15.47 
freq.     302.84  E(vib)   ...      15.47 
freq.     343.74  E(vib)   ...      15.41 
freq.     357.76  E(vib)   ...      15.39 
freq.     374.99  E(vib)   ...      15.37 
freq.     388.20  E(vib)   ...      15.35 
freq.     395.84  E(vib)   ...      15.34 
freq.     402.46  E(vib)   ...      15.33 
freq.     434.88  E(vib)   ...      15.28 
freq.     443.46  E(vib)   ...      15.27 
freq.     466.75  E(vib)   ...      15.24 
freq.     480.71  E(vib)   ...      15.22 
freq.     487.95  E(vib)   ...      15.21 
freq.     502.49  E(vib)   ...      15.19 
freq.     506.89  E(vib)   ...      15.18 
freq.     520.73  E(vib)   ...      15.17 
freq.     528.70  E(vib)   ...      15.15 
freq.     543.88  E(vib)   ...      15.13 
freq.     569.67  E(vib)   ...      15.10 
freq.     601.60  E(vib)   ...      15.05 
freq.     608.40  E(vib)   ...      15.04 
freq.     639.88  E(vib)   ...      15.00 
freq.     640.82  E(vib)   ...      15.00 
freq.     671.13  E(vib)   ...      14.96 
freq.     687.13  E(vib)   ...      14.94 
freq.     725.59  E(vib)   ...      14.88 
freq.     735.41  E(vib)   ...      14.87 
freq.     748.82  E(vib)   ...      14.85 
freq.     796.21  E(vib)   ...      14.79 
freq.     826.17  E(vib)   ...      14.75 
freq.     829.00  E(vib)   ...      14.74 
freq.     836.12  E(vib)   ...      14.73 
freq.     852.82  E(vib)   ...      14.71 
freq.     855.87  E(vib)   ...      14.71 
freq.     878.49  E(vib)   ...      14.68 
freq.     883.24  E(vib)   ...      14.67 
freq.     901.82  E(vib)   ...      14.64 
freq.     976.16  E(vib)   ...      14.54 
freq.     999.04  E(vib)   ...      14.51 
freq.    1000.84  E(vib)   ...      14.51 
freq.    1018.49  E(vib)   ...      14.49 
freq.    1059.69  E(vib)   ...      14.43 
freq.    1116.50  E(vib)   ...      14.36 
freq.    1150.32  E(vib)   ...      14.31 
freq.    1177.58  E(vib)   ...      14.27 
freq.    1207.62  E(vib)   ...      14.23 
freq.    1210.71  E(vib)   ...      14.23 
freq.    1227.35  E(vib)   ...      14.21 
freq.    1246.51  E(vib)   ...      14.18 
freq.    1257.19  E(vib)   ...      14.17 
freq.    1266.94  E(vib)   ...      14.16 
freq.    1296.22  E(vib)   ...      14.12 
freq.    1309.50  E(vib)   ...      14.10 
freq.    1346.49  E(vib)   ...      14.05 
freq.    1370.44  E(vib)   ...      14.02 
freq.    1383.25  E(vib)   ...      14.00 
freq.    1391.25  E(vib)   ...      13.99 
freq.    1424.02  E(vib)   ...      13.95 
freq.    1442.94  E(vib)   ...      13.92 
freq.    1455.53  E(vib)   ...      13.91 
freq.    1477.59  E(vib)   ...      13.88 
freq.    1484.83  E(vib)   ...      13.87 
freq.    1511.02  E(vib)   ...      13.84 
freq.    1585.95  E(vib)   ...      13.74 
freq.    1589.45  E(vib)   ...      13.73 
freq.    1606.86  E(vib)   ...      13.71 
freq.    1657.03  E(vib)   ...      13.65 
freq.    1697.15  E(vib)   ...      13.60 
freq.    1775.83  E(vib)   ...      13.49 
freq.    2109.39  E(vib)   ...      13.07 
freq.    2136.65  E(vib)   ...      13.04 
freq.    3198.88  E(vib)   ...      11.76 
freq.    3214.45  E(vib)   ...      11.74 
freq.    3231.37  E(vib)   ...      11.72 
freq.    3238.26  E(vib)   ...      11.72 
freq.    3246.02  E(vib)   ...      11.71 
freq.    3311.18  E(vib)   ...      11.63 

------------
INNER ENERGY
------------

The inner energy is: U= E(el) + E(ZPE) + E(vib) + E(rot) + E(trans)
    E(el)   - is the total energy from the electronic structure calculation
              = E(kin-el) + E(nuc-el) + E(el-el) + E(nuc-nuc)
    E(ZPE)  - the the zero temperature vibrational energy from the frequency calculation
    E(vib)  - the the finite temperature correction to E(ZPE) due to population
              of excited vibrational states
    E(rot)  - is the rotational thermal energy
    E(trans)- is the translational thermal energy

Summary of contributions to the inner energy U:
Electronic energy                ...   -917.74935404 Eh
Zero point energy                ...      0.20423254 Eh     128.16 kcal/mol
Thermal vibrational correction   ...      1.93379996 Eh    1213.48 kcal/mol
Thermal rotational correction    ...      0.03800158 Eh      23.85 kcal/mol
Thermal translational correction ...      0.03800158 Eh      23.85 kcal/mol
-----------------------------------------------------------------------
Total thermal energy                   -915.53531838 Eh


Summary of corrections to the electronic energy:
(perhaps to be used in another calculation)
Total thermal correction                  2.00980313 Eh    1261.17 kcal/mol
Non-thermal (ZPE) correction              0.20423254 Eh     128.16 kcal/mol
-----------------------------------------------------------------------
Total correction                          2.21403567 Eh    1389.33 kcal/mol


--------
ENTHALPY
--------

The enthalpy is H = U + kB*T
                kB is Boltzmann's constant
Total free energy                 ...   -915.53531838 Eh 
Thermal Enthalpy correction       ...      0.02533514 Eh      15.90 kcal/mol
-----------------------------------------------------------------------
Total Enthalpy                    ...   -915.50998323 Eh


Note: Rotational entropy computed according to Herzberg 
Infrared and Raman Spectra, Chapter V,1, Van Nostrand Reinhold, 1945 
Point Group:  Cs, Symmetry Number:   1  
Rotational constants in cm-1:     0.012166     0.011455     0.005900 

Vibrational entropy computed according to the QRRHO of S. Grimme
Chem.Eur.J. 2012 18 9955


-------
ENTROPY
-------

The entropy contributions are T*S = T*(S(el)+S(vib)+S(rot)+S(trans))
     S(el)   - electronic entropy
     S(vib)  - vibrational entropy
     S(rot)  - rotational entropy
     S(trans)- translational entropy
The entropies will be listed as multiplied by the temperature to get
units of energy

Electronic entropy                ...      0.00000000 Eh      0.00 kcal/mol
Vibrational entropy               ...      6.11262197 Eh   3835.72 kcal/mol
Rotational entropy                ...      0.55768865 Eh    349.95 kcal/mol
Translational entropy             ...      0.75572723 Eh    474.22 kcal/mol
-----------------------------------------------------------------------
Final entropy term                ...      7.42603785 Eh   4659.90 kcal/mol

In case the symmetry of your molecule has not been determined correctly
or in case you have a reason to use a different symmetry number we print 
out the resulting rotational entropy values for sn=1,12 :
 --------------------------------------------------------
|  sn= 1 | S(rot)=       0.55768865 Eh    349.95 kcal/mol|
|  sn= 2 | S(rot)=       0.54012819 Eh    338.93 kcal/mol|
|  sn= 3 | S(rot)=       0.52985598 Eh    332.49 kcal/mol|
|  sn= 4 | S(rot)=       0.52256773 Eh    327.92 kcal/mol|
|  sn= 5 | S(rot)=       0.51691452 Eh    324.37 kcal/mol|
|  sn= 6 | S(rot)=       0.51229552 Eh    321.47 kcal/mol|
|  sn= 7 | S(rot)=       0.50839021 Eh    319.02 kcal/mol|
|  sn= 8 | S(rot)=       0.50500727 Eh    316.90 kcal/mol|
|  sn= 9 | S(rot)=       0.50202331 Eh    315.02 kcal/mol|
|  sn=10 | S(rot)=       0.49935406 Eh    313.35 kcal/mol|
|  sn=11 | S(rot)=       0.49693944 Eh    311.83 kcal/mol|
|  sn=12 | S(rot)=       0.49473506 Eh    310.45 kcal/mol|
 --------------------------------------------------------


-------------------
GIBBS FREE ENERGY
-------------------

The Gibbs free energy is G = H - T*S

Total enthalpy                    ...   -915.50998323 Eh 
Total entropy correction          ...     -7.42603785 Eh  -4659.90 kcal/mol
-----------------------------------------------------------------------
Final Gibbs free energy         ...   -922.93602109 Eh

For completeness - the Gibbs free energy minus the electronic energy
G-E(el)                           ...     -5.18666704 Eh  -3254.68 kcal/mol


The first frequency considered to be a vibration is 6
The total number of vibrations considered is 84


--------------------------
THERMOCHEMISTRY AT 10000.00K
--------------------------

Temperature         ... 10000.00 K
Pressure            ... 1.00 atm
Total Mass          ... 294.31 AMU

Throughout the following assumptions are being made:
  (1) The electronic state is orbitally nondegenerate
  (2) There are no thermally accessible electronically excited states
  (3) Hindered rotations indicated by low frequency modes are not
      treated as such but are treated as vibrations and this may
      cause some error
  (4) All equations used are the standard statistical mechanics
      equations for an ideal gas
  (5) All vibrations are strictly harmonic

freq.      74.98  E(vib)   ...      19.77 
freq.      87.09  E(vib)   ...      19.75 
freq.     123.07  E(vib)   ...      19.70 
freq.     168.60  E(vib)   ...      19.63 
freq.     196.08  E(vib)   ...      19.59 
freq.     243.99  E(vib)   ...      19.53 
freq.     274.76  E(vib)   ...      19.48 
freq.     302.19  E(vib)   ...      19.44 
freq.     302.84  E(vib)   ...      19.44 
freq.     343.74  E(vib)   ...      19.39 
freq.     357.76  E(vib)   ...      19.37 
freq.     374.99  E(vib)   ...      19.34 
freq.     388.20  E(vib)   ...      19.32 
freq.     395.84  E(vib)   ...      19.31 
freq.     402.46  E(vib)   ...      19.30 
freq.     434.88  E(vib)   ...      19.26 
freq.     443.46  E(vib)   ...      19.25 
freq.     466.75  E(vib)   ...      19.21 
freq.     480.71  E(vib)   ...      19.19 
freq.     487.95  E(vib)   ...      19.18 
freq.     502.49  E(vib)   ...      19.16 
freq.     506.89  E(vib)   ...      19.16 
freq.     520.73  E(vib)   ...      19.14 
freq.     528.70  E(vib)   ...      19.13 
freq.     543.88  E(vib)   ...      19.11 
freq.     569.67  E(vib)   ...      19.07 
freq.     601.60  E(vib)   ...      19.02 
freq.     608.40  E(vib)   ...      19.02 
freq.     639.88  E(vib)   ...      18.97 
freq.     640.82  E(vib)   ...      18.97 
freq.     671.13  E(vib)   ...      18.93 
freq.     687.13  E(vib)   ...      18.91 
freq.     725.59  E(vib)   ...      18.85 
freq.     735.41  E(vib)   ...      18.84 
freq.     748.82  E(vib)   ...      18.82 
freq.     796.21  E(vib)   ...      18.76 
freq.     826.17  E(vib)   ...      18.71 
freq.     829.00  E(vib)   ...      18.71 
freq.     836.12  E(vib)   ...      18.70 
freq.     852.82  E(vib)   ...      18.68 
freq.     855.87  E(vib)   ...      18.67 
freq.     878.49  E(vib)   ...      18.64 
freq.     883.24  E(vib)   ...      18.64 
freq.     901.82  E(vib)   ...      18.61 
freq.     976.16  E(vib)   ...      18.51 
freq.     999.04  E(vib)   ...      18.48 
freq.    1000.84  E(vib)   ...      18.48 
freq.    1018.49  E(vib)   ...      18.45 
freq.    1059.69  E(vib)   ...      18.40 
freq.    1116.50  E(vib)   ...      18.32 
freq.    1150.32  E(vib)   ...      18.27 
freq.    1177.58  E(vib)   ...      18.24 
freq.    1207.62  E(vib)   ...      18.20 
freq.    1210.71  E(vib)   ...      18.19 
freq.    1227.35  E(vib)   ...      18.17 
freq.    1246.51  E(vib)   ...      18.14 
freq.    1257.19  E(vib)   ...      18.13 
freq.    1266.94  E(vib)   ...      18.12 
freq.    1296.22  E(vib)   ...      18.08 
freq.    1309.50  E(vib)   ...      18.06 
freq.    1346.49  E(vib)   ...      18.01 
freq.    1370.44  E(vib)   ...      17.98 
freq.    1383.25  E(vib)   ...      17.96 
freq.    1391.25  E(vib)   ...      17.95 
freq.    1424.02  E(vib)   ...      17.91 
freq.    1442.94  E(vib)   ...      17.88 
freq.    1455.53  E(vib)   ...      17.86 
freq.    1477.59  E(vib)   ...      17.83 
freq.    1484.83  E(vib)   ...      17.83 
freq.    1511.02  E(vib)   ...      17.79 
freq.    1585.95  E(vib)   ...      17.69 
freq.    1589.45  E(vib)   ...      17.69 
freq.    1606.86  E(vib)   ...      17.66 
freq.    1657.03  E(vib)   ...      17.60 
freq.    1697.15  E(vib)   ...      17.54 
freq.    1775.83  E(vib)   ...      17.44 
freq.    2109.39  E(vib)   ...      17.01 
freq.    2136.65  E(vib)   ...      16.97 
freq.    3198.88  E(vib)   ...      15.65 
freq.    3214.45  E(vib)   ...      15.63 
freq.    3231.37  E(vib)   ...      15.61 
freq.    3238.26  E(vib)   ...      15.60 
freq.    3246.02  E(vib)   ...      15.59 
freq.    3311.18  E(vib)   ...      15.51 

------------
INNER ENERGY
------------

The inner energy is: U= E(el) + E(ZPE) + E(vib) + E(rot) + E(trans)
    E(el)   - is the total energy from the electronic structure calculation
              = E(kin-el) + E(nuc-el) + E(el-el) + E(nuc-nuc)
    E(ZPE)  - the the zero temperature vibrational energy from the frequency calculation
    E(vib)  - the the finite temperature correction to E(ZPE) due to population
              of excited vibrational states
    E(rot)  - is the rotational thermal energy
    E(trans)- is the translational thermal energy

Summary of contributions to the inner energy U:
Electronic energy                ...   -917.74935404 Eh
Zero point energy                ...      0.20423254 Eh     128.16 kcal/mol
Thermal vibrational correction   ...      2.46387047 Eh    1546.10 kcal/mol
Thermal rotational correction    ...      0.04750198 Eh      29.81 kcal/mol
Thermal translational correction ...      0.04750198 Eh      29.81 kcal/mol
-----------------------------------------------------------------------
Total thermal energy                   -914.98624708 Eh


Summary of corrections to the electronic energy:
(perhaps to be used in another calculation)
Total thermal correction                  2.55887442 Eh    1605.71 kcal/mol
Non-thermal (ZPE) correction              0.20423254 Eh     128.16 kcal/mol
-----------------------------------------------------------------------
Total correction                          2.76310697 Eh    1733.87 kcal/mol


--------
ENTHALPY
--------

The enthalpy is H = U + kB*T
                kB is Boltzmann's constant
Total free energy                 ...   -914.98624708 Eh 
Thermal Enthalpy correction       ...      0.03166893 Eh      19.87 kcal/mol
-----------------------------------------------------------------------
Total Enthalpy                    ...   -914.95457815 Eh


Note: Rotational entropy computed according to Herzberg 
Infrared and Raman Spectra, Chapter V,1, Van Nostrand Reinhold, 1945 
Point Group:  Cs, Symmetry Number:   1  
Rotational constants in cm-1:     0.012166     0.011455     0.005900 

Vibrational entropy computed according to the QRRHO of S. Grimme
Chem.Eur.J. 2012 18 9955


-------
ENTROPY
-------

The entropy contributions are T*S = T*(S(el)+S(vib)+S(rot)+S(trans))
     S(el)   - electronic entropy
     S(vib)  - vibrational entropy
     S(rot)  - rotational entropy
     S(trans)- translational entropy
The entropies will be listed as multiplied by the temperature to get
units of energy

Electronic entropy                ...      0.00000000 Eh      0.00 kcal/mol
Vibrational entropy               ...      8.22509523 Eh   5161.31 kcal/mol
Rotational entropy                ...      0.70771057 Eh    444.09 kcal/mol
Translational entropy             ...      0.96232531 Eh    603.87 kcal/mol
-----------------------------------------------------------------------
Final entropy term                ...      9.89513110 Eh   6209.27 kcal/mol

In case the symmetry of your molecule has not been determined correctly
or in case you have a reason to use a different symmetry number we print 
out the resulting rotational entropy values for sn=1,12 :
 --------------------------------------------------------
|  sn= 1 | S(rot)=       0.70771057 Eh    444.09 kcal/mol|
|  sn= 2 | S(rot)=       0.68575999 Eh    430.32 kcal/mol|
|  sn= 3 | S(rot)=       0.67291973 Eh    422.26 kcal/mol|
|  sn= 4 | S(rot)=       0.66380942 Eh    416.55 kcal/mol|
|  sn= 5 | S(rot)=       0.65674291 Eh    412.11 kcal/mol|
|  sn= 6 | S(rot)=       0.65096916 Eh    408.49 kcal/mol|
|  sn= 7 | S(rot)=       0.64608752 Eh    405.43 kcal/mol|
|  sn= 8 | S(rot)=       0.64185885 Eh    402.77 kcal/mol|
|  sn= 9 | S(rot)=       0.63812890 Eh    400.43 kcal/mol|
|  sn=10 | S(rot)=       0.63479234 Eh    398.34 kcal/mol|
|  sn=11 | S(rot)=       0.63177406 Eh    396.44 kcal/mol|
|  sn=12 | S(rot)=       0.62901858 Eh    394.71 kcal/mol|
 --------------------------------------------------------


-------------------
GIBBS FREE ENERGY
-------------------

The Gibbs free energy is G = H - T*S

Total enthalpy                    ...   -914.95457815 Eh 
Total entropy correction          ...     -9.89513110 Eh  -6209.27 kcal/mol
-----------------------------------------------------------------------
Final Gibbs free energy         ...   -924.84970926 Eh

For completeness - the Gibbs free energy minus the electronic energy
G-E(el)                           ...     -7.10035521 Eh  -4455.53 kcal/mol


Timings for individual modules:

Sum of individual times         ...    19517.051 sec (= 325.284 min)
GTO integral calculation        ...       49.678 sec (=   0.828 min)   0.3 %
SCF iterations                  ...     6245.877 sec (= 104.098 min)  32.0 %
SCF Gradient evaluation         ...     1469.259 sec (=  24.488 min)   7.5 %
Geometry relaxation             ...        3.043 sec (=   0.051 min)   0.0 %
Analytical frequency calculation...    11749.194 sec (= 195.820 min)  60.2 %
                             ****ORCA TERMINATED NORMALLY****
TOTAL RUN TIME: 0 days 5 hours 25 minutes 26 seconds 909 msec
