
                                 *****************
                                 * O   R   C   A *
                                 *****************

                                            #,                                       
                                            ###                                      
                                            ####                                     
                                            #####                                    
                                            ######                                   
                                           ########,                                 
                                     ,,################,,,,,                         
                               ,,#################################,,                 
                          ,,##########################################,,             
                       ,#########################################, ''#####,          
                    ,#############################################,,   '####,        
                  ,##################################################,,,,####,       
                ,###########''''           ''''###############################       
              ,#####''   ,,,,##########,,,,          '''####'''          '####       
            ,##' ,,,,###########################,,,                        '##       
           ' ,,###''''                  '''############,,,                           
         ,,##''                                '''############,,,,        ,,,,,,###''
      ,#''                                            '''#######################'''  
     '                                                          ''''####''''         
             ,#######,   #######,   ,#######,      ##                                
            ,#'     '#,  ##    ##  ,#'     '#,    #''#        ######   ,####,        
            ##       ##  ##   ,#'  ##            #'  '#       #        #'  '#        
            ##       ##  #######   ##           ,######,      #####,   #    #        
            '#,     ,#'  ##    ##  '#,     ,#' ,#      #,         ##   #,  ,#        
             '#######'   ##     ##  '#######'  #'      '#     #####' # '####'        



                  #######################################################
                  #                        -***-                        #
                  #          Department of theory and spectroscopy      #
                  #    Directorship and core code : Frank Neese         #
                  #        Max Planck Institute fuer Kohlenforschung    #
                  #                Kaiser Wilhelm Platz 1               #
                  #                 D-45470 Muelheim/Ruhr               #
                  #                      Germany                        #
                  #                                                     #
                  #                  All rights reserved                #
                  #                        -***-                        #
                  #######################################################



                         Program Version 5.0.4 -  RELEASE  -

 With contributions from (in alphabetic order):
   Daniel Aravena         : Magnetic Suceptibility
   Michael Atanasov       : Ab Initio Ligand Field Theory (pilot matlab implementation)
   Alexander A. Auer      : GIAO ZORA, VPT2 properties, NMR spectrum
   Ute Becker             : Parallelization
   Giovanni Bistoni       : ED, misc. LED, open-shell LED, HFLD
   Martin Brehm           : Molecular dynamics
   Dmytro Bykov           : SCF Hessian
   Vijay G. Chilkuri      : MRCI spin determinant printing, contributions to CSF-ICE
   Dipayan Datta          : RHF DLPNO-CCSD density
   Achintya Kumar Dutta   : EOM-CC, STEOM-CC
   Dmitry Ganyushin       : Spin-Orbit,Spin-Spin,Magnetic field MRCI
   Miquel Garcia          : C-PCM and meta-GGA Hessian, CC/C-PCM, Gaussian charge scheme
   Yang Guo               : DLPNO-NEVPT2, F12-NEVPT2, CIM, IAO-localization
   Andreas Hansen         : Spin unrestricted coupled pair/coupled cluster methods
   Benjamin Helmich-Paris : MC-RPA, TRAH-SCF, COSX integrals
   Lee Huntington         : MR-EOM, pCC
   Robert Izsak           : Overlap fitted RIJCOSX, COSX-SCS-MP3, EOM
   Marcus Kettner         : VPT2
   Christian Kollmar      : KDIIS, OOCD, Brueckner-CCSD(T), CCSD density, CASPT2, CASPT2-K
   Simone Kossmann        : Meta GGA functionals, TD-DFT gradient, OOMP2, MP2 Hessian
   Martin Krupicka        : Initial AUTO-CI
   Lucas Lang             : DCDCAS
   Marvin Lechner         : AUTO-CI (C++ implementation), FIC-MRCC
   Dagmar Lenk            : GEPOL surface, SMD
   Dimitrios Liakos       : Extrapolation schemes; Compound Job, initial MDCI parallelization
   Dimitrios Manganas     : Further ROCIS development; embedding schemes
   Dimitrios Pantazis     : SARC Basis sets
   Anastasios Papadopoulos: AUTO-CI, single reference methods and gradients
   Taras Petrenko         : DFT Hessian,TD-DFT gradient, ASA, ECA, R-Raman, ABS, FL, XAS/XES, NRVS
   Peter Pinski           : DLPNO-MP2, DLPNO-MP2 Gradient
   Christoph Reimann      : Effective Core Potentials
   Marius Retegan         : Local ZFS, SOC
   Christoph Riplinger    : Optimizer, TS searches, QM/MM, DLPNO-CCSD(T), (RO)-DLPNO pert. Triples
   Tobias Risthaus        : Range-separated hybrids, TD-DFT gradient, RPA, STAB
   Michael Roemelt        : Original ROCIS implementation
   Masaaki Saitow         : Open-shell DLPNO-CCSD energy and density
   Barbara Sandhoefer     : DKH picture change effects
   Avijit Sen             : IP-ROCIS
   Kantharuban Sivalingam : CASSCF convergence, NEVPT2, FIC-MRCI
   Bernardo de Souza      : ESD, SOC TD-DFT
   Georgi Stoychev        : AutoAux, RI-MP2 NMR, DLPNO-MP2 response
   Willem Van den Heuvel  : Paramagnetic NMR
   Boris Wezisla          : Elementary symmetry handling
   Frank Wennmohs         : Technical directorship


 We gratefully acknowledge several colleagues who have allowed us to
 interface, adapt or use parts of their codes:
   Stefan Grimme, W. Hujo, H. Kruse, P. Pracht,  : VdW corrections, initial TS optimization,
                  C. Bannwarth, S. Ehlert          DFT functionals, gCP, sTDA/sTD-DF
   Ed Valeev, F. Pavosevic, A. Kumar             : LibInt (2-el integral package), F12 methods
   Garnet Chan, S. Sharma, J. Yang, R. Olivares  : DMRG
   Ulf Ekstrom                                   : XCFun DFT Library
   Mihaly Kallay                                 : mrcc  (arbitrary order and MRCC methods)
   Jiri Pittner, Ondrej Demel                    : Mk-CCSD
   Frank Weinhold                                : gennbo (NPA and NBO analysis)
   Christopher J. Cramer and Donald G. Truhlar   : smd solvation model
   Lars Goerigk                                  : TD-DFT with DH, B97 family of functionals
   V. Asgeirsson, H. Jonsson                     : NEB implementation
   FAccTs GmbH                                   : IRC, NEB, NEB-TS, DLPNO-Multilevel, CI-OPT
                                                   MM, QMMM, 2- and 3-layer-ONIOM, Crystal-QMMM,
                                                   LR-CPCM, SF, NACMEs, symmetry and pop. for TD-DFT,
                                                   nearIR, NL-DFT gradient (VV10), updates on ESD,
                                                   ML-optimized integration grids
   S Lehtola, MJT Oliveira, MAL Marques          : LibXC Library
   Liviu Ungur et al                             : ANISO software


 Your calculation uses the libint2 library for the computation of 2-el integrals
 For citations please refer to: http://libint.valeyev.net

 Your ORCA version has been built with support for libXC version: 5.1.0
 For citations please refer to: https://tddft.org/programs/libxc/

 This ORCA versions uses:
   CBLAS   interface :  Fast vector & matrix operations
   LAPACKE interface :  Fast linear algebra routines
   Shared memory     :  Shared parallel matrices


XCFun DFT library Copyright 2009-2010 Ulf Ekstrom and contributors.
See http://admol.org/xcfun for more information.
This is free software; see the source code for copying conditions.
There is ABSOLUTELY NO WARRANTY; not even for MERCHANTABILITY or FITNESS FOR A PARTICULAR PURPOSE.
For details see the documentation.
Scientific users of this library should cite U. Ekstrom, L. Visscher, R. Bast, A. J. Thorvaldsen and K. Ruud;
J.Chem.Theor.Comp. 2010, DOI: 10.1021/ct100117s
XCFun Version 0.99 

================================================================================

----- Orbital basis set information -----
Your calculation utilizes the basis: def2-TZVP
   F. Weigend and R. Ahlrichs, Phys. Chem. Chem. Phys. 7, 3297 (2005).

----- AuxJ basis set information -----
Your calculation utilizes the auxiliary basis: def2/J
   F. Weigend, Phys. Chem. Chem. Phys. 8, 1057 (2006).

================================================================================
                                        WARNINGS
                       Please study these warnings very carefully!
================================================================================

WARNING: Old DensityContainer found on disk!
         Will remove this file - 
         If you want to keep old densities, please start your calculation with a different basename. 


WARNING: your system is open-shell and RHF/RKS was chosen
  ===> : WILL SWITCH to UHF/UKS


WARNING: Geometry Optimization
  ===> : Switching off AutoStart
         For restart on a previous wavefunction, please use MOREAD

WARNING: Minnesota functionals are quite sensitive to the integration grid.
         see SE Wheeler, KN Houk, JCTC 2010, 6, 395,
             N Mardirossian, M Head-Gordon, JCTC 2016, 12, 4303.
         DEFGRID3 seems to be a minimum grid for reliable results with these functionals!
  ===> : Please increase the integration grid!


INFO   : the flag for use of the SHARK integral package has been found!

================================================================================
                                       INPUT FILE
================================================================================
NAME = eight_position_coronene.inp
|  1> !M062X def2-Tzvp opt freq PAL4
|  2> 
|  3> *xyz 0 2
|  4>   C   2.46738420969044     -2.81263795783172     -0.00000966049012
|  5>   C   1.29021523102800     -3.51201377298185     -0.00004058752843
|  6>   C   0.03545823654551     -2.84357180192689     -0.00011700654154
|  7>   C   -1.20218758884439     -3.54318722424976     -0.00015075042869
|  8>   C   -2.39648198994610     -2.87343733279545     -0.00022388485081
|  9>   C   -2.44483130317816     -1.45256921864444     -0.00026846552257
| 10>   C   -3.66953458511693     -0.73051865229528     -0.00034472511273
| 11>   C   -3.68661914160231      0.63861472840141     -0.00038730418280
| 12>   C   -2.48033157917503      1.39101004534826     -0.00035686907249
| 13>   C   -2.46738422792533      2.81263810716101     -0.00040016524558
| 14>   C   -1.29021516017741      3.51201377026014     -0.00036907952599
| 15>   C   -0.03545824433177      2.84357164855152     -0.00029288255853
| 16>   C   1.20218752109912      3.54318714702554     -0.00025868906408
| 17>   C   2.39648192584401      2.87343728473768     -0.00018556866102
| 18>   C   2.44483133698195      1.45256923480284     -0.00014000970252
| 19>   C   3.66953468525759      0.73051872239281     -0.00006428529983
| 20>   C   3.68661917516395     -0.63861465299814     -0.00002177884745
| 21>   C   2.48033158796062     -1.39100989330468     -0.00005249628054
| 22>   C   1.24283538920719     -0.69700184097772     -0.00012812520396
| 23>   C   1.22507788089312      0.72785817295726     -0.00017277212960
| 24>   C   -0.01778931269948      1.42488311059932     -0.00024838531844
| 25>   C   -1.24283548786547      0.69700179739327     -0.00028095765872
| 26>   C   -1.22507784798994     -0.72785823769859     -0.00023664253283
| 27>   C   0.01778926369246     -1.42488327113558     -0.00016058910124
| 28>   H   3.41550123147825     -3.34209676159282      0.00004910526765
| 29>   H   1.30169328790670     -4.59787475323892     -0.00000731993262
| 30>   H   -1.18632309082569     -4.62898226472676     -0.00011753033763
| 31>   H   -3.33114883046848     -3.42627830125467     -0.00024867043727
| 32>   H   -4.60200524090237     -1.28700819551871     -0.00036909708835
| 33>   H   -4.63271390284347      1.17161298430852     -0.00044608968339
| 34>   H   -3.41550124203130      3.34209675863002     -0.00045950330323
| 35>   H   1.18632293779304      4.62898220026966     -0.00029320761784
| 36>   H   3.33114870064961      3.42627836580996     -0.00016042132367
| 37>   H   4.60200524894750      1.28700844288560     -0.00003923404308
| 38>   H   4.63271397793190     -1.17161304216713      0.00003686274508
| 39> **                         ****END OF INPUT****
================================================================================

                       *****************************
                       * Geometry Optimization Run *
                       *****************************

Geometry optimization settings:
Update method            Update   .... BFGS
Choice of coordinates    CoordSys .... Z-matrix Internals
Initial Hessian          InHess   .... Almoef's Model

Convergence Tolerances:
Energy Change            TolE     ....  5.0000e-06 Eh
Max. Gradient            TolMAXG  ....  3.0000e-04 Eh/bohr
RMS Gradient             TolRMSG  ....  1.0000e-04 Eh/bohr
Max. Displacement        TolMAXD  ....  4.0000e-03 bohr
RMS Displacement         TolRMSD  ....  2.0000e-03 bohr
Strict Convergence                ....  False
------------------------------------------------------------------------------
                        ORCA OPTIMIZATION COORDINATE SETUP
------------------------------------------------------------------------------

The optimization will be done in new redundant internal coordinates
Making redundant internal coordinates   ...  (new redundants) done
Evaluating the initial hessian          ...  (Almloef) done
Evaluating the coordinates              ...  done
Calculating the B-matrix                .... done
Calculating the G-matrix                .... done
Diagonalizing the G-matrix              .... done
The first mode is                       ....  128
The number of degrees of freedom        ....   99

    -----------------------------------------------------------------
                    Redundant Internal Coordinates


    -----------------------------------------------------------------
         Definition                    Initial Value    Approx d2E/dq
    -----------------------------------------------------------------
      1. B(C   1,C   0)                  1.3693         0.674279   
      2. B(C   2,C   1)                  1.4217         0.556114   
      3. B(C   3,C   2)                  1.4217         0.556115   
      4. B(C   4,C   3)                  1.3693         0.674233   
      5. B(C   5,C   4)                  1.4217         0.556133   
      6. B(C   6,C   5)                  1.4217         0.556096   
      7. B(C   7,C   6)                  1.3692         0.674310   
      8. B(C   8,C   7)                  1.4217         0.556115   
      9. B(C   9,C   8)                  1.4217         0.556140   
     10. B(C  10,C   9)                  1.3693         0.674279   
     11. B(C  11,C  10)                  1.4217         0.556114   
     12. B(C  12,C  11)                  1.4217         0.556115   
     13. B(C  13,C  12)                  1.3693         0.674233   
     14. B(C  14,C  13)                  1.4217         0.556133   
     15. B(C  15,C  14)                  1.4217         0.556096   
     16. B(C  16,C  15)                  1.3692         0.674310   
     17. B(C  17,C  16)                  1.4217         0.556115   
     18. B(C  17,C   0)                  1.4217         0.556140   
     19. B(C  18,C  17)                  1.4188         0.562033   
     20. B(C  19,C  18)                  1.4250         0.549471   
     21. B(C  19,C  14)                  1.4188         0.562061   
     22. B(C  20,C  19)                  1.4250         0.549456   
     23. B(C  20,C  11)                  1.4188         0.562072   
     24. B(C  21,C  20)                  1.4250         0.549466   
     25. B(C  21,C   8)                  1.4188         0.562033   
     26. B(C  22,C  21)                  1.4250         0.549471   
     27. B(C  22,C   5)                  1.4188         0.562061   
     28. B(C  23,C  22)                  1.4250         0.549456   
     29. B(C  23,C  18)                  1.4250         0.549466   
     30. B(C  23,C   2)                  1.4188         0.562072   
     31. B(H  24,C   0)                  1.0859         0.365519   
     32. B(H  25,C   1)                  1.0859         0.365536   
     33. B(H  26,C   3)                  1.0859         0.365550   
     34. B(H  27,C   4)                  1.0859         0.365530   
     35. B(H  28,C   6)                  1.0859         0.365563   
     36. B(H  29,C   7)                  1.0859         0.365563   
     37. B(H  30,C   9)                  1.0859         0.365519   
     38. B(H  31,C  12)                  1.0859         0.365550   
     39. B(H  32,C  13)                  1.0859         0.365530   
     40. B(H  33,C  15)                  1.0859         0.365563   
     41. B(H  34,C  16)                  1.0859         0.365562   
     42. A(C  17,C   0,H  24)          118.6586         0.347367   
     43. A(C   1,C   0,C  17)          121.2371         0.432136   
     44. A(C   1,C   0,H  24)          120.1044         0.358881   
     45. A(C   0,C   1,C   2)          121.2393         0.432133   
     46. A(C   0,C   1,H  25)          120.1096         0.358883   
     47. A(C   2,C   1,H  25)          118.6510         0.347367   
     48. A(C   3,C   2,C  23)          118.7650         0.418284   
     49. A(C   1,C   2,C  23)          118.7589         0.418284   
     50. A(C   1,C   2,C   3)          122.4760         0.417491   
     51. A(C   4,C   3,H  26)          120.1204         0.358882   
     52. A(C   2,C   3,H  26)          118.6415         0.347370   
     53. A(C   2,C   3,C   4)          121.2381         0.432128   
     54. A(C   5,C   4,H  27)          118.6547         0.347368   
     55. A(C   3,C   4,H  27)          120.1130         0.358878   
     56. A(C   3,C   4,C   5)          121.2322         0.432130   
     57. A(C   4,C   5,C   6)          122.4713         0.417491   
     58. A(C   4,C   5,C  22)          118.7676         0.418285   
     59. A(C   6,C   5,C  22)          118.7611         0.418280   
     60. A(C   7,C   6,H  28)          120.1134         0.358891   
     61. A(C   5,C   6,H  28)          118.6492         0.347370   
     62. A(C   5,C   6,C   7)          121.2373         0.432134   
     63. A(C   6,C   7,C   8)          121.2380         0.432137   
     64. A(C   8,C   7,H  29)          118.6516         0.347372   
     65. A(C   6,C   7,H  29)          120.1104         0.358891   
     66. A(C   7,C   8,C   9)          122.4747         0.417494   
     67. A(C   7,C   8,C  21)          118.7626         0.418279   
     68. A(C   9,C   8,C  21)          118.7626         0.418282   
     69. A(C   8,C   9,H  30)          118.6586         0.347367   
     70. A(C  10,C   9,H  30)          120.1044         0.358881   
     71. A(C   8,C   9,C  10)          121.2371         0.432136   
     72. A(C   9,C  10,C  11)          121.2393         0.432133   
     73. A(C  12,C  11,C  20)          118.7650         0.418284   
     74. A(C  10,C  11,C  20)          118.7590         0.418284   
     75. A(C  10,C  11,C  12)          122.4760         0.417491   
     76. A(C  11,C  12,H  31)          118.6415         0.347370   
     77. A(C  11,C  12,C  13)          121.2381         0.432128   
     78. A(C  13,C  12,H  31)          120.1204         0.358882   
     79. A(C  12,C  13,C  14)          121.2322         0.432130   
     80. A(C  14,C  13,H  32)          118.6548         0.347368   
     81. A(C  12,C  13,H  32)          120.1130         0.358878   
     82. A(C  13,C  14,C  15)          122.4713         0.417491   
     83. A(C  15,C  14,C  19)          118.7611         0.418280   
     84. A(C  13,C  14,C  19)          118.7676         0.418285   
     85. A(C  14,C  15,C  16)          121.2373         0.432134   
     86. A(C  16,C  15,H  33)          120.1134         0.358891   
     87. A(C  14,C  15,H  33)          118.6492         0.347370   
     88. A(C  17,C  16,H  34)          118.6516         0.347372   
     89. A(C  15,C  16,H  34)          120.1104         0.358891   
     90. A(C  15,C  16,C  17)          121.2380         0.432137   
     91. A(C  16,C  17,C  18)          118.7626         0.418279   
     92. A(C   0,C  17,C  18)          118.7626         0.418282   
     93. A(C   0,C  17,C  16)          122.4747         0.417494   
     94. A(C  17,C  18,C  19)          119.9984         0.417385   
     95. A(C  19,C  18,C  23)          120.0033         0.415708   
     96. A(C  17,C  18,C  23)          119.9982         0.417384   
     97. A(C  18,C  19,C  20)          119.9986         0.415707   
     98. A(C  14,C  19,C  20)          119.9989         0.417386   
     99. A(C  14,C  19,C  18)          120.0025         0.417388   
    100. A(C  11,C  20,C  19)          119.9981         0.417388   
    101. A(C  19,C  20,C  21)          119.9981         0.415706   
    102. A(C  11,C  20,C  21)          120.0038         0.417389   
    103. A(C  20,C  21,C  22)          120.0033         0.415708   
    104. A(C   8,C  21,C  22)          119.9985         0.417385   
    105. A(C   8,C  21,C  20)          119.9982         0.417384   
    106. A(C  21,C  22,C  23)          119.9986         0.415707   
    107. A(C   5,C  22,C  23)          119.9989         0.417386   
    108. A(C   5,C  22,C  21)          120.0024         0.417388   
    109. A(C  18,C  23,C  22)          119.9980         0.415706   
    110. A(C   2,C  23,C  22)          119.9981         0.417388   
    111. A(C   2,C  23,C  18)          120.0038         0.417389   
    112. D(C   2,C   1,C   0,C  17)      0.0000         0.031828   
    113. D(H  25,C   1,C   0,H  24)     -0.0001         0.031828   
    114. D(C   2,C   1,C   0,H  24)    180.0000         0.031828   
    115. D(H  25,C   1,C   0,C  17)    180.0000         0.031828   
    116. D(C   3,C   2,C   1,C   0)    180.0000         0.021173   
    117. D(C  23,C   2,C   1,H  25)    180.0000         0.021173   
    118. D(C  23,C   2,C   1,C   0)     -0.0000         0.021173   
    119. D(C   3,C   2,C   1,H  25)      0.0000         0.021173   
    120. D(H  26,C   3,C   2,C  23)    180.0000         0.021173   
    121. D(H  26,C   3,C   2,C   1)     -0.0000         0.021173   
    122. D(C   4,C   3,C   2,C  23)      0.0000         0.021173   
    123. D(C   4,C   3,C   2,C   1)    180.0000         0.021173   
    124. D(H  27,C   4,C   3,C   2)    180.0000         0.031823   
    125. D(C   5,C   4,C   3,C   2)     -0.0000         0.031823   
    126. D(C   5,C   4,C   3,H  26)    180.0000         0.031823   
    127. D(H  27,C   4,C   3,H  26)      0.0000         0.031823   
    128. D(C  22,C   5,C   4,H  27)   -180.0000         0.021175   
    129. D(C   6,C   5,C   4,H  27)     -0.0000         0.021175   
    130. D(C  22,C   5,C   4,C   3)      0.0000         0.021175   
    131. D(C   6,C   5,C   4,C   3)    180.0000         0.021175   
    132. D(H  28,C   6,C   5,C  22)    180.0000         0.021172   
    133. D(H  28,C   6,C   5,C   4)      0.0000         0.021172   
    134. D(C   7,C   6,C   5,C  22)     -0.0000         0.021172   
    135. D(C   7,C   6,C   5,C   4)   -180.0000         0.021172   
    136. D(H  29,C   7,C   6,C   5)    180.0000         0.031831   
    137. D(H  29,C   7,C   6,H  28)     -0.0000         0.031831   
    138. D(C   8,C   7,C   6,H  28)   -180.0000         0.031831   
    139. D(C   8,C   7,C   6,C   5)     -0.0000         0.031831   
    140. D(C  21,C   8,C   7,C   6)      0.0000         0.021173   
    141. D(C   9,C   8,C   7,H  29)      0.0000         0.021173   
    142. D(C   9,C   8,C   7,C   6)    180.0000         0.021173   
    143. D(C  21,C   8,C   7,H  29)   -180.0000         0.021173   
    144. D(H  30,C   9,C   8,C  21)    179.9999         0.021175   
    145. D(H  30,C   9,C   8,C   7)     -0.0000         0.021175   
    146. D(C  10,C   9,C   8,C  21)     -0.0000         0.021175   
    147. D(C  10,C   9,C   8,C   7)    180.0000         0.021175   
    148. D(C  11,C  10,C   9,H  30)   -179.9999         0.028834   
    149. D(C  11,C  10,C   9,C   8)      0.0000         0.028834   
    150. D(C  20,C  11,C  10,C   9)     -0.0000         0.019231   
    151. D(C  12,C  11,C  10,C   9)   -180.0000         0.019231   
    152. D(H  31,C  12,C  11,C  20)    180.0000         0.021173   
    153. D(H  31,C  12,C  11,C  10)     -0.0001         0.021173   
    154. D(C  13,C  12,C  11,C  20)      0.0001         0.021173   
    155. D(C  13,C  12,C  11,C  10)   -180.0000         0.021173   
    156. D(H  32,C  13,C  12,H  31)      0.0001         0.031823   
    157. D(H  32,C  13,C  12,C  11)   -180.0000         0.031823   
    158. D(C  14,C  13,C  12,H  31)   -180.0000         0.031823   
    159. D(C  14,C  13,C  12,C  11)     -0.0000         0.031823   
    160. D(C  19,C  14,C  13,H  32)   -180.0000         0.021175   
    161. D(C  19,C  14,C  13,C  12)      0.0001         0.021175   
    162. D(C  15,C  14,C  13,H  32)     -0.0001         0.021175   
    163. D(C  15,C  14,C  13,C  12)    180.0000         0.021175   
    164. D(H  33,C  15,C  14,C  19)   -180.0000         0.021172   
    165. D(H  33,C  15,C  14,C  13)      0.0001         0.021172   
    166. D(C  16,C  15,C  14,C  19)     -0.0001         0.021172   
    167. D(C  16,C  15,C  14,C  13)   -180.0000         0.021172   
    168. D(H  34,C  16,C  15,H  33)     -0.0000         0.031831   
    169. D(H  34,C  16,C  15,C  14)   -179.9999         0.031831   
    170. D(C  17,C  16,C  15,H  33)    180.0000         0.031831   
    171. D(C  17,C  16,C  15,C  14)      0.0000         0.031831   
    172. D(C  18,C  17,C   0,C   1)      0.0000         0.021175   
    173. D(C  16,C  17,C   0,H  24)      0.0000         0.021175   
    174. D(C  16,C  17,C   0,C   1)    180.0000         0.021175   
    175. D(C  18,C  17,C  16,H  34)    180.0000         0.021173   
    176. D(C  18,C  17,C  16,C  15)     -0.0000         0.021173   
    177. D(C   0,C  17,C  16,H  34)     -0.0000         0.021173   
    178. D(C   0,C  17,C  16,C  15)   -180.0000         0.021173   
    179. D(C  18,C  17,C   0,H  24)   -179.9999         0.021175   
    180. D(C  23,C  18,C  17,C  16)    180.0000         0.021644   
    181. D(C  23,C  18,C  17,C   0)     -0.0000         0.021644   
    182. D(C  19,C  18,C  17,C  16)      0.0000         0.021644   
    183. D(C  19,C  18,C  17,C   0)   -180.0000         0.021644   
    184. D(C  20,C  19,C  18,C  23)      0.0001         0.020653   
    185. D(C  20,C  19,C  18,C  17)   -180.0000         0.020653   
    186. D(C  14,C  19,C  18,C  23)    180.0000         0.020653   
    187. D(C  14,C  19,C  18,C  17)     -0.0001         0.020653   
    188. D(C  20,C  19,C  14,C  15)    180.0000         0.021646   
    189. D(C  20,C  19,C  14,C  13)     -0.0001         0.021646   
    190. D(C  18,C  19,C  14,C  15)      0.0001         0.021646   
    191. D(C  18,C  19,C  14,C  13)   -180.0000         0.021646   
    192. D(C  21,C  20,C  19,C  18)     -0.0001         0.020651   
    193. D(C  21,C  20,C  19,C  14)   -180.0000         0.020651   
    194. D(C  11,C  20,C  19,C  18)   -180.0000         0.020651   
    195. D(C  11,C  20,C  19,C  14)      0.0001         0.020651   
    196. D(C  21,C  20,C  11,C  12)    180.0000         0.021647   
    197. D(C  21,C  20,C  11,C  10)      0.0000         0.021647   
    198. D(C  19,C  20,C  11,C  12)     -0.0001         0.021647   
    199. D(C  19,C  20,C  11,C  10)    180.0000         0.021647   
    200. D(C  22,C  21,C  20,C  19)      0.0001         0.020652   
    201. D(C  22,C  21,C  20,C  11)    180.0000         0.020652   
    202. D(C   8,C  21,C  20,C  19)   -180.0000         0.020652   
    203. D(C   8,C  21,C  20,C  11)     -0.0000         0.020652   
    204. D(C  22,C  21,C   8,C   9)   -180.0000         0.021644   
    205. D(C  22,C  21,C   8,C   7)     -0.0000         0.021644   
    206. D(C  20,C  21,C   8,C   9)      0.0001         0.021644   
    207. D(C  20,C  21,C   8,C   7)   -180.0000         0.021644   
    208. D(C  23,C  22,C  21,C  20)     -0.0000         0.020653   
    209. D(C  23,C  22,C  21,C   8)    180.0000         0.020653   
    210. D(C   5,C  22,C  21,C  20)    180.0000         0.020653   
    211. D(C   5,C  22,C  21,C   8)      0.0000         0.020653   
    212. D(C  23,C  22,C   5,C   6)   -180.0000         0.021646   
    213. D(C  23,C  22,C   5,C   4)     -0.0000         0.021646   
    214. D(C  21,C  22,C   5,C   6)      0.0000         0.021646   
    215. D(C  21,C  22,C   5,C   4)    180.0000         0.021646   
    216. D(C  18,C  23,C  22,C  21)      0.0000         0.020651   
    217. D(C  18,C  23,C  22,C   5)   -180.0000         0.020651   
    218. D(C   2,C  23,C  22,C  21)   -180.0000         0.020651   
    219. D(C   2,C  23,C  22,C   5)      0.0000         0.020651   
    220. D(C  22,C  23,C  18,C  19)     -0.0000         0.020652   
    221. D(C  22,C  23,C  18,C  17)   -180.0000         0.020652   
    222. D(C   2,C  23,C  18,C  19)    180.0000         0.020652   
    223. D(C   2,C  23,C  18,C  17)      0.0000         0.020652   
    224. D(C  22,C  23,C   2,C   3)      0.0000         0.021647   
    225. D(C  22,C  23,C   2,C   1)   -180.0000         0.021647   
    226. D(C  18,C  23,C   2,C   3)    180.0000         0.021647   
    227. D(C  18,C  23,C   2,C   1)      0.0000         0.021647   
    -----------------------------------------------------------------

Number of atoms                         .... 35
Number of degrees of freedom            .... 227

         *************************************************************
         *                GEOMETRY OPTIMIZATION CYCLE   1            *
         *************************************************************
---------------------------------
CARTESIAN COORDINATES (ANGSTROEM)
---------------------------------
  C      2.467384   -2.812638   -0.000010
  C      1.290215   -3.512014   -0.000041
  C      0.035458   -2.843572   -0.000117
  C     -1.202188   -3.543187   -0.000151
  C     -2.396482   -2.873437   -0.000224
  C     -2.444831   -1.452569   -0.000268
  C     -3.669535   -0.730519   -0.000345
  C     -3.686619    0.638615   -0.000387
  C     -2.480332    1.391010   -0.000357
  C     -2.467384    2.812638   -0.000400
  C     -1.290215    3.512014   -0.000369
  C     -0.035458    2.843572   -0.000293
  C      1.202188    3.543187   -0.000259
  C      2.396482    2.873437   -0.000186
  C      2.444831    1.452569   -0.000140
  C      3.669535    0.730519   -0.000064
  C      3.686619   -0.638615   -0.000022
  C      2.480332   -1.391010   -0.000052
  C      1.242835   -0.697002   -0.000128
  C      1.225078    0.727858   -0.000173
  C     -0.017789    1.424883   -0.000248
  C     -1.242835    0.697002   -0.000281
  C     -1.225078   -0.727858   -0.000237
  C      0.017789   -1.424883   -0.000161
  H      3.415501   -3.342097    0.000049
  H      1.301693   -4.597875   -0.000007
  H     -1.186323   -4.628982   -0.000118
  H     -3.331149   -3.426278   -0.000249
  H     -4.602005   -1.287008   -0.000369
  H     -4.632714    1.171613   -0.000446
  H     -3.415501    3.342097   -0.000460
  H      1.186323    4.628982   -0.000293
  H      3.331149    3.426278   -0.000160
  H      4.602005    1.287008   -0.000039
  H      4.632714   -1.171613    0.000037

----------------------------
CARTESIAN COORDINATES (A.U.)
----------------------------
  NO LB      ZA    FRAG     MASS         X           Y           Z
   0 C     6.0000    0    12.011    4.662680   -5.315115   -0.000018
   1 C     6.0000    0    12.011    2.438153   -6.636744   -0.000077
   2 C     6.0000    0    12.011    0.067006   -5.373572   -0.000221
   3 C     6.0000    0    12.011   -2.271805   -6.695653   -0.000285
   4 C     6.0000    0    12.011   -4.528695   -5.430010   -0.000423
   5 C     6.0000    0    12.011   -4.620062   -2.744958   -0.000507
   6 C     6.0000    0    12.011   -6.934415   -1.380480   -0.000651
   7 C     6.0000    0    12.011   -6.966701    1.206807   -0.000732
   8 C     6.0000    0    12.011   -4.687147    2.628628   -0.000674
   9 C     6.0000    0    12.011   -4.662680    5.315116   -0.000756
  10 C     6.0000    0    12.011   -2.438153    6.636744   -0.000697
  11 C     6.0000    0    12.011   -0.067006    5.373572   -0.000553
  12 C     6.0000    0    12.011    2.271805    6.695653   -0.000489
  13 C     6.0000    0    12.011    4.528695    5.430010   -0.000351
  14 C     6.0000    0    12.011    4.620062    2.744958   -0.000265
  15 C     6.0000    0    12.011    6.934416    1.380480   -0.000121
  16 C     6.0000    0    12.011    6.966701   -1.206807   -0.000041
  17 C     6.0000    0    12.011    4.687147   -2.628628   -0.000099
  18 C     6.0000    0    12.011    2.348619   -1.317143   -0.000242
  19 C     6.0000    0    12.011    2.315062    1.375453   -0.000326
  20 C     6.0000    0    12.011   -0.033617    2.692639   -0.000469
  21 C     6.0000    0    12.011   -2.348619    1.317143   -0.000531
  22 C     6.0000    0    12.011   -2.315062   -1.375453   -0.000447
  23 C     6.0000    0    12.011    0.033617   -2.692639   -0.000303
  24 H     1.0000    0     1.008    6.454362   -6.315648    0.000093
  25 H     1.0000    0     1.008    2.459844   -8.688724   -0.000014
  26 H     1.0000    0     1.008   -2.241826   -8.747509   -0.000222
  27 H     1.0000    0     1.008   -6.294959   -6.474728   -0.000470
  28 H     1.0000    0     1.008   -8.696530   -2.432093   -0.000697
  29 H     1.0000    0     1.008   -8.754561    2.214028   -0.000843
  30 H     1.0000    0     1.008   -6.454362    6.315648   -0.000868
  31 H     1.0000    0     1.008    2.241825    8.747509   -0.000554
  32 H     1.0000    0     1.008    6.294959    6.474728   -0.000303
  33 H     1.0000    0     1.008    8.696530    2.432093   -0.000074
  34 H     1.0000    0     1.008    8.754561   -2.214028    0.000070

--------------------------------
INTERNAL COORDINATES (ANGSTROEM)
--------------------------------
 C      0   0   0     0.000000000000     0.00000000     0.00000000
 C      1   0   0     1.369252838631     0.00000000     0.00000000
 C      2   1   0     1.421699613037   121.23934451     0.00000000
 C      3   2   1     1.421699310472   122.47602878   179.99999384
 C      4   3   2     1.369271353295   121.23809940   179.99996920
 C      5   4   3     1.421690492297   121.23223782     0.00000000
 C      6   5   4     1.421708533762   122.47131349   179.99998997
 C      7   6   5     1.369239970941   121.23732514   180.00004597
 C      8   7   6     1.421699123288   121.23802353     0.00000000
 C      9   8   7     1.421687019675   122.47474631   179.99997879
 C     10   9   8     1.369252837559   121.23705080   179.99998485
 C     11  10   9     1.421699614455   121.23934504     0.00000000
 C     12  11  10     1.421699295760   122.47601808   180.00002024
 C     13  12  11     1.369271342206   121.23809668   180.00002033
 C     14  13  12     1.421690431479   121.23224072     0.00000000
 C     15  14  13     1.421708563484   122.47131429   179.99998396
 C     16  15  14     1.369239964802   121.23731913   180.00000490
 C      1   2   3     1.421687022621   121.23705926     0.00000000
 C     18   1   2     1.418817826341   118.76261642     0.00000000
 C     15  14  13     1.418803939195   118.76756145     0.00000000
 C     12  11  10     1.418798562461   118.75895431     0.00000000
 C      9   8   7     1.418817828334   118.76262716     0.00000000
 C      6   5   4     1.418803897077   118.76756270     0.00000000
 C      3   2   1     1.418798555786   118.75894913     0.00000000
 H      1   2   3     1.085933936912   120.10435872   179.99998331
 H      2   1   3     1.085921643279   120.10963583   179.99996250
 H      4   3   2     1.085910932501   118.64148585     0.00000000
 H      5   4   3     1.085925982650   120.11301389   179.99999791
 H      7   6   5     1.085901531545   118.64924856     0.00000000
 H      8   7   6     1.085901672116   120.11038192   179.99996149
 H     10   9   8     1.085933855985   118.65857629     0.00000000
 H     13  12  11     1.085910946553   118.64148522     0.00000000
 H     14  13  12     1.085925983426   120.11300815   180.00000352
 H     16  15  14     1.085901543322   118.64924127     0.00000000
 H     17  16  15     1.085901773698   120.11038419   180.00005489

---------------------------
INTERNAL COORDINATES (A.U.)
---------------------------
 C      0   0   0     0.000000000000     0.00000000     0.00000000
 C      1   0   0     2.587512873107     0.00000000     0.00000000
 C      2   1   0     2.686622913342   121.23934451     0.00000000
 C      3   2   1     2.686622341576   122.47602878   179.99999384
 C      4   3   2     2.587547860751   121.23809940   179.99996920
 C      5   4   3     2.686605677642   121.23223782     0.00000000
 C      6   5   4     2.686639771069   122.47131349   179.99998997
 C      7   6   5     2.587488556696   121.23732514   180.00004597
 C      8   7   6     2.686621987849   121.23802353     0.00000000
 C      9   8   7     2.686599115336   122.47474631   179.99997879
 C     10   9   8     2.587512871082   121.23705080   179.99998485
 C     11  10   9     2.686622916022   121.23934504     0.00000000
 C     12  11  10     2.686622313774   122.47601808   180.00002024
 C     13  12  11     2.587547839796   121.23809668   180.00002033
 C     14  13  12     2.686605562711   121.23224072     0.00000000
 C     15  14  13     2.686639827235   122.47131429   179.99998396
 C     16  15  14     2.587488545096   121.23731913   180.00000490
 C      1   2   3     2.686599120904   121.23705926     0.00000000
 C     18   1   2     2.681177125710   118.76261642     0.00000000
 C     15  14  13     2.681150882807   118.76756145     0.00000000
 C     12  11  10     2.681140722253   118.75895431     0.00000000
 C      9   8   7     2.681177129476   118.76262716     0.00000000
 C      6   5   4     2.681150803215   118.76756270     0.00000000
 C      3   2   1     2.681140709638   118.75894913     0.00000000
 H      1   2   3     2.052117740295   120.10435872   179.99998331
 H      2   1   3     2.052094508695   120.10963583   179.99996250
 H      4   3   2     2.052074268258   118.64148585     0.00000000
 H      5   4   3     2.052102708917   120.11301389   179.99999791
 H      7   6   5     2.052056503026   118.64924856     0.00000000
 H      8   7   6     2.052056768666   120.11038192   179.99996149
 H     10   9   8     2.052117587364   118.65857629     0.00000000
 H     13  12  11     2.052074294813   118.64148522     0.00000000
 H     14  13  12     2.052102710384   120.11300815   180.00000352
 H     16  15  14     2.052056525282   118.64924127     0.00000000
 H     17  16  15     2.052056960628   120.11038419   180.00005489

---------------------
BASIS SET INFORMATION
---------------------
There are 2 groups of distinct atoms

 Group   1 Type C   : 11s6p2d1f contracted to 5s3p2d1f pattern {62111/411/11/1}
 Group   2 Type H   : 5s1p contracted to 3s1p pattern {311/1}

Atom   0C    basis set group =>   1
Atom   1C    basis set group =>   1
Atom   2C    basis set group =>   1
Atom   3C    basis set group =>   1
Atom   4C    basis set group =>   1
Atom   5C    basis set group =>   1
Atom   6C    basis set group =>   1
Atom   7C    basis set group =>   1
Atom   8C    basis set group =>   1
Atom   9C    basis set group =>   1
Atom  10C    basis set group =>   1
Atom  11C    basis set group =>   1
Atom  12C    basis set group =>   1
Atom  13C    basis set group =>   1
Atom  14C    basis set group =>   1
Atom  15C    basis set group =>   1
Atom  16C    basis set group =>   1
Atom  17C    basis set group =>   1
Atom  18C    basis set group =>   1
Atom  19C    basis set group =>   1
Atom  20C    basis set group =>   1
Atom  21C    basis set group =>   1
Atom  22C    basis set group =>   1
Atom  23C    basis set group =>   1
Atom  24H    basis set group =>   2
Atom  25H    basis set group =>   2
Atom  26H    basis set group =>   2
Atom  27H    basis set group =>   2
Atom  28H    basis set group =>   2
Atom  29H    basis set group =>   2
Atom  30H    basis set group =>   2
Atom  31H    basis set group =>   2
Atom  32H    basis set group =>   2
Atom  33H    basis set group =>   2
Atom  34H    basis set group =>   2
---------------------------------
AUXILIARY/J BASIS SET INFORMATION
---------------------------------
There are 2 groups of distinct atoms

 Group   1 Type C   : 12s5p4d2f1g contracted to 6s4p3d1f1g pattern {711111/2111/211/2/1}
 Group   2 Type H   : 5s2p1d contracted to 3s1p1d pattern {311/2/1}

Atom   0C    basis set group =>   1
Atom   1C    basis set group =>   1
Atom   2C    basis set group =>   1
Atom   3C    basis set group =>   1
Atom   4C    basis set group =>   1
Atom   5C    basis set group =>   1
Atom   6C    basis set group =>   1
Atom   7C    basis set group =>   1
Atom   8C    basis set group =>   1
Atom   9C    basis set group =>   1
Atom  10C    basis set group =>   1
Atom  11C    basis set group =>   1
Atom  12C    basis set group =>   1
Atom  13C    basis set group =>   1
Atom  14C    basis set group =>   1
Atom  15C    basis set group =>   1
Atom  16C    basis set group =>   1
Atom  17C    basis set group =>   1
Atom  18C    basis set group =>   1
Atom  19C    basis set group =>   1
Atom  20C    basis set group =>   1
Atom  21C    basis set group =>   1
Atom  22C    basis set group =>   1
Atom  23C    basis set group =>   1
Atom  24H    basis set group =>   2
Atom  25H    basis set group =>   2
Atom  26H    basis set group =>   2
Atom  27H    basis set group =>   2
Atom  28H    basis set group =>   2
Atom  29H    basis set group =>   2
Atom  30H    basis set group =>   2
Atom  31H    basis set group =>   2
Atom  32H    basis set group =>   2
Atom  33H    basis set group =>   2
Atom  34H    basis set group =>   2


           ************************************************************
           *        Program running with 4 parallel MPI-processes     *
           *              working on a common directory               *
           ************************************************************
------------------------------------------------------------------------------
                           ORCA GTO INTEGRAL CALCULATION
                           -- RI-GTO INTEGRALS CHOSEN --
------------------------------------------------------------------------------
------------------------------------------------------------------------------
                   ___                                                        
                  /   \      - P O W E R E D   B Y -                         
                 /     \                                                     
                 |  |  |   _    _      __       _____    __    __             
                 |  |  |  | |  | |    /  \     |  _  \  |  |  /  |          
                  \  \/   | |  | |   /    \    | | | |  |  | /  /          
                 / \  \   | |__| |  /  /\  \   | |_| |  |  |/  /          
                |  |  |   |  __  | /  /__\  \  |    /   |      \           
                |  |  |   | |  | | |   __   |  |    \   |  |\   \          
                \     /   | |  | | |  |  |  |  | |\  \  |  | \   \       
                 \___/    |_|  |_| |__|  |__|  |_| \__\ |__|  \__/        
                                                                              
                      - O R C A' S   B I G   F R I E N D -                    
                                      &                                       
                       - I N T E G R A L  F E E D E R -                       
                                                                              
 v1 FN, 2020, v2 2021                                                         
------------------------------------------------------------------------------


Reading SHARK input file eight_position_coronene.SHARKINP.tmp ... ok
----------------------
SHARK INTEGRAL PACKAGE
----------------------

Number of atoms                             ...     35
Number of basis functions                   ...    810
Number of shells                            ...    308
Maximum angular momentum                    ...      3
Integral batch strategy                     ... SHARK/LIBINT Hybrid
RI-J (if used) integral strategy            ... SPLIT-RIJ (Revised 2003 algorithm where possible)
Printlevel                                  ...      1
Contraction scheme used                     ... SEGMENTED contraction
Coulomb Range Separation                    ... NOT USED
Exchange Range Separation                   ... NOT USED
Finite Nucleus Model                        ... NOT USED
Auxiliary Coulomb fitting basis             ... AVAILABLE
   # of basis functions in Aux-J            ...   1297
   # of shells in Aux-J                     ...    415
   Maximum angular momentum in Aux-J        ...      4
Auxiliary J/K fitting basis                 ... NOT available
Auxiliary Correlation fitting basis         ... NOT available
Auxiliary 'external' fitting basis          ... NOT available
Integral threshold                          ...     2.500000e-11
Primitive cut-off                           ...     2.500000e-12
Primitive pair pre-selection threshold      ...     2.500000e-12

Calculating pre-screening integrals         ... done (  0.1 sec) Dimension = 308
Organizing shell pair data                  ... done (  4.3 sec)
Shell pair information
Total number of shell pairs                 ...     47586
Shell pairs after pre-screening             ...     36438
Total number of primitive shell pairs       ...    149892
Primitive shell pairs kept                  ...     76842
          la=0 lb=0:   8384 shell pairs
          la=1 lb=0:  10052 shell pairs
          la=1 lb=1:   2990 shell pairs
          la=2 lb=0:   5478 shell pairs
          la=2 lb=1:   3306 shell pairs
          la=2 lb=2:    927 shell pairs
          la=3 lb=0:   2588 shell pairs
          la=3 lb=1:   1582 shell pairs
          la=3 lb=2:    894 shell pairs
          la=3 lb=3:    237 shell pairs

Calculating one electron integrals          ... done (  0.1 sec)
Calculating RI/J V-Matrix + Cholesky decomp.... done (  0.1 sec)
Calculating Nuclear repulsion               ... done (  0.0 sec) ENN=   1813.718931049113 Eh

SHARK setup successfully completed in  12.4 seconds

Maximum memory used throughout the entire GTOINT-calculation: 53.3 MB


           ************************************************************
           *        Program running with 4 parallel MPI-processes     *
           *              working on a common directory               *
           ************************************************************
-------------------------------------------------------------------------------
                                 ORCA SCF
-------------------------------------------------------------------------------

------------
SCF SETTINGS
------------
Hamiltonian:
 Density Functional     Method          .... DFT(GTOs)
 Exchange Functional    Exchange        .... M062X
 Correlation Functional Correlation     .... M062X
 Gradients option       PostSCFGGA      .... off
 Hybrid DFT is turned on
   Fraction HF Exchange ScalHFX         ....  0.540000
   Scaling of DF-GGA-X  ScalDFX         ....  0.460000
   Scaling of DF-GGA-C  ScalDFC         ....  1.000000
   Scaling of DF-LDA-C  ScalLDAC        ....  1.000000
   Perturbative correction              ....  0.000000
   Density functional embedding theory  .... OFF
 RI-approximation to the Coulomb term is turned on
   Number of AuxJ basis functions       .... 1297
   RIJ-COSX (HFX calculated with COS-X)).... on


General Settings:
 Integral files         IntName         .... eight_position_coronene
 Hartree-Fock type      HFTyp           .... UHF
 Total Charge           Charge          ....    0
 Multiplicity           Mult            ....    2
 Number of Electrons    NEL             ....  155
 Basis Dimension        Dim             ....  810
 Nuclear Repulsion      ENuc            ....   1813.7189310491 Eh

Convergence Acceleration:
 DIIS                   CNVDIIS         .... on
   Start iteration      DIISMaxIt       ....    12
   Startup error        DIISStart       ....  0.200000
   # of expansion vecs  DIISMaxEq       ....     5
   Bias factor          DIISBfac        ....   1.050
   Max. coefficient     DIISMaxC        ....  10.000
 Trust-Rad. Augm. Hess. CNVTRAH         .... auto
   Auto Start mean grad. ratio tolernc. ....  1.125000
   Auto Start start iteration           ....    20
   Auto Start num. interpolation iter.  ....    10
   Max. Number of Micro iterations      ....    16
   Max. Number of Macro iterations      .... Maxiter - #DIIS iter
   Number of Davidson start vectors     ....     2
   Converg. threshold I  (grad. norm)   ....   1.000e-05
   Converg. threshold II (energy diff.) ....   1.000e-08
   Grad. Scal. Fac. for Micro threshold ....   0.100
   Minimum threshold for Micro iter.    ....   0.010
   NR start threshold (gradient norm)   ....   0.001
   Initial trust radius                 ....   0.400
   Minimum AH scaling param. (alpha)    ....   1.000
   Maximum AH scaling param. (alpha)    .... 1000.000
   Orbital update algorithm             .... Taylor
   White noise on init. David. guess    .... on
   Maximum white noise                  ....   0.010
   Quad. conv. algorithm                .... NR
 SOSCF                  CNVSOSCF        .... off
 Level Shifting         CNVShift        .... on
   Level shift para.    LevelShift      ....    0.2500
   Turn off err/grad.   ShiftErr        ....    0.0010
 Zerner damping         CNVZerner       .... off
 Static damping         CNVDamp         .... on
   Fraction old density DampFac         ....    0.7000
   Max. Damping (<1)    DampMax         ....    0.9800
   Min. Damping (>=0)   DampMin         ....    0.0000
   Turn off err/grad.   DampErr         ....    0.1000
 Fernandez-Rico         CNVRico         .... off

SCF Procedure:
 Maximum # iterations   MaxIter         ....   125
 SCF integral mode      SCFMode         .... Direct
   Integral package                     .... SHARK and LIBINT hybrid scheme
 Reset frequency        DirectResetFreq ....    20
 Integral Threshold     Thresh          ....  2.500e-11 Eh
 Primitive CutOff       TCut            ....  2.500e-12 Eh

Convergence Tolerance:
 Convergence Check Mode ConvCheckMode   .... Total+1el-Energy
 Convergence forced     ConvForced      .... 0
 Energy Change          TolE            ....  1.000e-08 Eh
 1-El. energy change                    ....  1.000e-05 Eh
 DIIS Error             TolErr          ....  5.000e-07


Diagonalization of the overlap matrix:
Smallest eigenvalue                        ... 6.370e-07
Time for diagonalization                   ...    0.203 sec
Threshold for overlap eigenvalues          ... 1.000e-08
Number of eigenvalues below threshold      ... 0
Time for construction of square roots      ...    0.149 sec
Total time needed                          ...    0.354 sec

Time for model grid setup =    0.597 sec

------------------------------
INITIAL GUESS: MODEL POTENTIAL
------------------------------
Loading Hartree-Fock densities                     ... done
Calculating cut-offs                               ... done
Initializing the effective Hamiltonian             ... done
Setting up the integral package (SHARK)            ... done
Starting the Coulomb interaction                   ... done (   1.5 sec)
Reading the grid                                   ... done
Mapping shells                                     ... done
Starting the XC term evaluation                    ... done (   1.3 sec)
  promolecular density results
     # of electrons  =    154.982962333
     EX              =   -126.076265368
     EC              =     -5.247926010
     EX+EC           =   -131.324191378
Transforming the Hamiltonian                       ... done (   0.1 sec)
Diagonalizing the Hamiltonian                      ... done (   0.1 sec)
Back transforming the eigenvectors                 ... done (   0.0 sec)
Now organizing SCF variables                       ... done
                      ------------------
                      INITIAL GUESS DONE (   3.7 sec)
                      ------------------
-------------------
DFT GRID GENERATION
-------------------

General Integration Accuracy     IntAcc      ... 4.388
Radial Grid Type                 RadialGrid  ... OptM3 with GC (2021)
Angular Grid (max. ang.)         AngularGrid ... 4 (Lebedev-302)
Angular grid pruning method      GridPruning ... 4 (adaptive)
Weight generation scheme         WeightScheme... Becke
Basis function cutoff            BFCut       ... 1.0000e-11
Integration weight cutoff        WCut        ... 1.0000e-14
Angular grids for H and He will be reduced by one unit
Partially contracted basis set               ... off
Rotationally invariant grid construction     ... off

Total number of grid points                  ...   177401
Total number of batches                      ...     2790
Average number of points per batch           ...       63
Average number of grid points per atom       ...     5069
Time for grid setup =    1.777 sec

--------------------
COSX GRID GENERATION
--------------------

GRIDX 1
-------
General Integration Accuracy     IntAcc      ... 3.816
Radial Grid Type                 RadialGrid  ... OptM3 with GC (2021)
Angular Grid (max. ang.)         AngularGrid ... 1 (Lebedev-50)
Angular grid pruning method      GridPruning ... 4 (adaptive)
Weight generation scheme         WeightScheme... Becke
Basis function cutoff            BFCut       ... 1.0000e-11
Integration weight cutoff        WCut        ... 1.0000e-14
Angular grids for H and He will be reduced by one unit
Partially contracted basis set               ... on
Rotationally invariant grid construction     ... off

Total number of grid points                  ...    22588
Total number of batches                      ...      367
Average number of points per batch           ...       61
Average number of grid points per atom       ...      645
UseSFitting                                  ... on

GRIDX 2
-------
General Integration Accuracy     IntAcc      ... 4.020
Radial Grid Type                 RadialGrid  ... OptM3 with GC (2021)
Angular Grid (max. ang.)         AngularGrid ... 2 (Lebedev-110)
Angular grid pruning method      GridPruning ... 4 (adaptive)
Weight generation scheme         WeightScheme... Becke
Basis function cutoff            BFCut       ... 1.0000e-11
Integration weight cutoff        WCut        ... 1.0000e-14
Angular grids for H and He will be reduced by one unit
Partially contracted basis set               ... on
Rotationally invariant grid construction     ... off

Total number of grid points                  ...    49794
Total number of batches                      ...      798
Average number of points per batch           ...       62
Average number of grid points per atom       ...     1423
UseSFitting                                  ... on

GRIDX 3
-------
General Integration Accuracy     IntAcc      ... 4.338
Radial Grid Type                 RadialGrid  ... OptM3 with GC (2021)
Angular Grid (max. ang.)         AngularGrid ... 3 (Lebedev-194)
Angular grid pruning method      GridPruning ... 4 (adaptive)
Weight generation scheme         WeightScheme... Becke
Basis function cutoff            BFCut       ... 1.0000e-11
Integration weight cutoff        WCut        ... 1.0000e-14
Angular grids for H and He will be reduced by one unit
Partially contracted basis set               ... on
Rotationally invariant grid construction     ... off

Total number of grid points                  ...   109482
Total number of batches                      ...     1731
Average number of points per batch           ...       63
Average number of grid points per atom       ...     3128
UseSFitting                                  ... on

Time for X-Grid setup             =    4.346 sec

--------------
SCF ITERATIONS
--------------
ITER       Energy         Delta-E        Max-DP      RMS-DP      [F,P]     Damp
               ***  Starting incremental Fock matrix formation  ***
  0   -920.7465286595   0.000000000000 0.08203395  0.00089426  0.0706856 0.7000
  1   -920.9067808609  -0.160252201424 0.06565416  0.00073750  0.0421696 0.7000
                               ***Turning on DIIS***
  2   -920.9941719140  -0.087391053083 0.15992717  0.00179868  0.0214356 0.0000
  3   -921.1377243937  -0.143552479668 0.01762996  0.00024523  0.0180479 0.0000
  4   -921.1574468613  -0.019722467630 0.01849813  0.00012942  0.0056720 0.0000
  5   -921.1581451289  -0.000698267555 0.01376519  0.00007391  0.0031035 0.0000
  6   -921.1583357365  -0.000190607652 0.01050257  0.00005648  0.0020632 0.0000
  7   -921.1584305159  -0.000094779421 0.00519532  0.00003113  0.0010626 0.0000
  8   -921.1584773017  -0.000046785801 0.00253780  0.00001715  0.0006997 0.0000
               *** Restarting incremental Fock matrix formation ***
                                   *** Resetting DIIS ***
  9   -921.1581149813   0.000362320465 0.01216716  0.00015179  0.0003817 0.0000
 10   -921.1581213430  -0.000006361689 0.00034722  0.00000362  0.0003068 0.0000
 11   -921.1581235611  -0.000002218187 0.00101244  0.00000899  0.0002256 0.0000
 12   -921.1581267640  -0.000003202898 0.00033234  0.00000387  0.0001290 0.0000
 13   -921.1581277744  -0.000001010408 0.00017805  0.00000298  0.0000692 0.0000
 14   -921.1581281284  -0.000000353997 0.00011473  0.00000153  0.0000188 0.0000
 15   -921.1581281632  -0.000000034738 0.00010422  0.00000113  0.0000172 0.0000
 16   -921.1581281787  -0.000000015517 0.00021571  0.00000259  0.0000098 0.0000
 17   -921.1581281895  -0.000000010838 0.00010744  0.00000109  0.0000075 0.0000
 18   -921.1581281930  -0.000000003495 0.00012900  0.00000162  0.0000066 0.0000
 19   -921.1581282104  -0.000000017371 0.00012931  0.00000146  0.0000036 0.0000
 20   -921.1581282358  -0.000000025364 0.00015325  0.00000241  0.0000023 0.0000
                            ***DIIS convergence achieved***

               *****************************************************
               *                     SUCCESS                       *
               *           SCF CONVERGED AFTER  21 CYCLES          *
               *****************************************************

Old exchange energy                            =    -69.410253126 Eh
New exchange energy                            =    -69.410079139 Eh
Exchange energy change after final integration =      0.000173987 Eh
Total energy after final integration           =   -921.157954255 Eh
Final COS-X integration done in                =    92.449 sec

----------------
TOTAL SCF ENERGY
----------------

Total Energy       :         -921.15795425 Eh          -25065.98227 eV

Components:
Nuclear Repulsion  :         1813.71893105 Eh           49353.80121 eV
Electronic Energy  :        -2734.87688530 Eh          -74419.78348 eV
One Electron Energy:        -4847.04349069 Eh         -131894.75878 eV
Two Electron Energy:         2112.16660539 Eh           57474.97530 eV
Max COSX asymmetry :            0.00000190 Eh               0.00005 eV

Virial components:
Potential Energy   :        -1837.34470266 Eh          -49996.69114 eV
Kinetic Energy     :          916.18674841 Eh           24930.70888 eV
Virial Ratio       :            2.00542597


DFT components:
N(Alpha)           :       78.000156552831 electrons
N(Beta)            :       77.000162621974 electrons
N(Total)           :      155.000319174805 electrons
E(XC)              :      -64.793353217030 Eh       
DFET-embed. en.    :        0.000000000000 Eh       

---------------
SCF CONVERGENCE
---------------

  Last Energy change         ...   -6.2985e-09  Tolerance :   1.0000e-08
  Last MAX-Density change    ...    0.0000e+00  Tolerance :   1.0000e-07
  Last RMS-Density change    ...    0.0000e+00  Tolerance :   5.0000e-09
  Last DIIS Error            ...    9.7390e-07  Tolerance :   5.0000e-07

             **** THE GBW FILE WAS UPDATED (eight_position_coronene.gbw) ****
             **** DENSITY eight_position_coronene.scfp WAS UPDATED ****
             **** ENERGY FILE WAS UPDATED (eight_position_coronene.en.tmp) ****
----------------------
UHF SPIN CONTAMINATION
----------------------

Warning: in a DFT calculation there is little theoretical justification to 
         calculate <S**2> as in Hartree-Fock theory. We will do it anyways
         but you should keep in mind that the values have only limited relevance

Expectation value of <S**2>     :     0.765820
Ideal value S*(S+1) for S=0.5   :     0.750000
Deviation                       :     0.015820

             **** THE GBW FILE WAS UPDATED (eight_position_coronene.gbw) ****
             **** DENSITY eight_position_coronene.scfp WAS UPDATED ****
----------------
ORBITAL ENERGIES
----------------
                 SPIN UP ORBITALS
  NO   OCC          E(Eh)            E(eV) 
   0   1.0000     -10.581284      -287.9314 
   1   1.0000     -10.566169      -287.5201 
   2   1.0000     -10.564628      -287.4782 
   3   1.0000     -10.564568      -287.4765 
   4   1.0000     -10.561411      -287.3906 
   5   1.0000     -10.560932      -287.3776 
   6   1.0000     -10.560590      -287.3683 
   7   1.0000     -10.560286      -287.3600 
   8   1.0000     -10.559950      -287.3508 
   9   1.0000     -10.559897      -287.3494 
  10   1.0000     -10.559384      -287.3355 
  11   1.0000     -10.559295      -287.3330 
  12   1.0000     -10.559208      -287.3307 
  13   1.0000     -10.555532      -287.2306 
  14   1.0000     -10.552484      -287.1477 
  15   1.0000     -10.551717      -287.1268 
  16   1.0000     -10.551662      -287.1253 
  17   1.0000     -10.551566      -287.1227 
  18   1.0000     -10.551492      -287.1207 
  19   1.0000     -10.551428      -287.1189 
  20   1.0000     -10.550700      -287.0991 
  21   1.0000     -10.550597      -287.0963 
  22   1.0000     -10.550569      -287.0956 
  23   1.0000     -10.550472      -287.0929 
  24   1.0000      -1.020502       -27.7693 
  25   1.0000      -0.982021       -26.7222 
  26   1.0000      -0.980512       -26.6811 
  27   1.0000      -0.930847       -25.3296 
  28   1.0000      -0.930475       -25.3195 
  29   1.0000      -0.912459       -24.8293 
  30   1.0000      -0.879108       -23.9217 
  31   1.0000      -0.863633       -23.5006 
  32   1.0000      -0.844633       -22.9836 
  33   1.0000      -0.844006       -22.9666 
  34   1.0000      -0.810744       -22.0615 
  35   1.0000      -0.809027       -22.0147 
  36   1.0000      -0.725592       -19.7444 
  37   1.0000      -0.724224       -19.7071 
  38   1.0000      -0.723045       -19.6751 
  39   1.0000      -0.719922       -19.5901 
  40   1.0000      -0.711335       -19.3564 
  41   1.0000      -0.646301       -17.5867 
  42   1.0000      -0.636636       -17.3238 
  43   1.0000      -0.621547       -16.9132 
  44   1.0000      -0.618264       -16.8238 
  45   1.0000      -0.610571       -16.6145 
  46   1.0000      -0.594310       -16.1720 
  47   1.0000      -0.550911       -14.9910 
  48   1.0000      -0.547878       -14.9085 
  49   1.0000      -0.533630       -14.5208 
  50   1.0000      -0.531619       -14.4661 
  51   1.0000      -0.529783       -14.4161 
  52   1.0000      -0.518138       -14.0993 
  53   1.0000      -0.510239       -13.8843 
  54   1.0000      -0.496159       -13.5012 
  55   1.0000      -0.492140       -13.3918 
  56   1.0000      -0.489252       -13.3132 
  57   1.0000      -0.479575       -13.0499 
  58   1.0000      -0.470643       -12.8068 
  59   1.0000      -0.464563       -12.6414 
  60   1.0000      -0.462491       -12.5850 
  61   1.0000      -0.462450       -12.5839 
  62   1.0000      -0.440716       -11.9925 
  63   1.0000      -0.431566       -11.7435 
  64   1.0000      -0.425204       -11.5704 
  65   1.0000      -0.423610       -11.5270 
  66   1.0000      -0.403852       -10.9894 
  67   1.0000      -0.401721       -10.9314 
  68   1.0000      -0.389608       -10.6018 
  69   1.0000      -0.384617       -10.4660 
  70   1.0000      -0.376216       -10.2374 
  71   1.0000      -0.335355        -9.1255 
  72   1.0000      -0.327700        -8.9172 
  73   1.0000      -0.322845        -8.7851 
  74   1.0000      -0.311473        -8.4756 
  75   1.0000      -0.310108        -8.4385 
  76   1.0000      -0.254980        -6.9384 
  77   1.0000      -0.253043        -6.8857 
  78   0.0000      -0.042061        -1.1445 
  79   0.0000      -0.040444        -1.1005 
  80   0.0000       0.002451         0.0667 
  81   0.0000       0.002930         0.0797 
  82   0.0000       0.021121         0.5747 
  83   0.0000       0.048185         1.3112 
  84   0.0000       0.079586         2.1657 
  85   0.0000       0.084617         2.3025 
  86   0.0000       0.085653         2.3307 
  87   0.0000       0.090293         2.4570 
  88   0.0000       0.098715         2.6862 
  89   0.0000       0.102766         2.7964 
  90   0.0000       0.115097         3.1319 
  91   0.0000       0.115872         3.1530 
  92   0.0000       0.116618         3.1733 
  93   0.0000       0.123258         3.3540 
  94   0.0000       0.126001         3.4287 
  95   0.0000       0.133535         3.6337 
  96   0.0000       0.139171         3.7870 
  97   0.0000       0.140634         3.8268 
  98   0.0000       0.146330         3.9818 
  99   0.0000       0.163753         4.4559 
 100   0.0000       0.175878         4.7859 
 101   0.0000       0.179636         4.8882 
 102   0.0000       0.181902         4.9498 
 103   0.0000       0.188361         5.1256 
 104   0.0000       0.191765         5.2182 
 105   0.0000       0.194062         5.2807 
 106   0.0000       0.205423         5.5898 
 107   0.0000       0.210781         5.7356 
 108   0.0000       0.214582         5.8391 
 109   0.0000       0.222933         6.0663 
 110   0.0000       0.227152         6.1811 
 111   0.0000       0.235632         6.4119 
 112   0.0000       0.236525         6.4362 
 113   0.0000       0.242571         6.6007 
 114   0.0000       0.246478         6.7070 
 115   0.0000       0.262337         7.1385 
 116   0.0000       0.264894         7.2081 
 117   0.0000       0.265771         7.2320 
 118   0.0000       0.267497         7.2790 
 119   0.0000       0.270790         7.3686 
 120   0.0000       0.271648         7.3919 
 121   0.0000       0.283744         7.7211 
 122   0.0000       0.284666         7.7461 
 123   0.0000       0.284838         7.7508 
 124   0.0000       0.289164         7.8685 
 125   0.0000       0.291935         7.9439 
 126   0.0000       0.294596         8.0164 
 127   0.0000       0.300030         8.1642 
 128   0.0000       0.304424         8.2838 
 129   0.0000       0.309380         8.4186 
 130   0.0000       0.315225         8.5777 
 131   0.0000       0.321221         8.7409 
 132   0.0000       0.321255         8.7418 
 133   0.0000       0.322299         8.7702 
 134   0.0000       0.322361         8.7719 
 135   0.0000       0.323887         8.8134 
 136   0.0000       0.334723         9.1083 
 137   0.0000       0.337674         9.1886 
 138   0.0000       0.347229         9.4486 
 139   0.0000       0.352605         9.5949 
 140   0.0000       0.356118         9.6905 
 141   0.0000       0.358454         9.7540 
 142   0.0000       0.358778         9.7629 
 143   0.0000       0.371052        10.0968 
 144   0.0000       0.376091        10.2340 
 145   0.0000       0.382477        10.4077 
 146   0.0000       0.383072        10.4239 
 147   0.0000       0.384082        10.4514 
 148   0.0000       0.385116        10.4796 
 149   0.0000       0.385536        10.4910 
 150   0.0000       0.389073        10.5872 
 151   0.0000       0.390471        10.6253 
 152   0.0000       0.398347        10.8396 
 153   0.0000       0.401808        10.9338 
 154   0.0000       0.411945        11.2096 
 155   0.0000       0.413736        11.2583 
 156   0.0000       0.421000        11.4560 
 157   0.0000       0.422184        11.4882 
 158   0.0000       0.424524        11.5519 
 159   0.0000       0.425754        11.5854 
 160   0.0000       0.437852        11.9146 
 161   0.0000       0.443747        12.0750 
 162   0.0000       0.444556        12.0970 
 163   0.0000       0.447810        12.1855 
 164   0.0000       0.455271        12.3886 
 165   0.0000       0.462198        12.5770 
 166   0.0000       0.463544        12.6137 
 167   0.0000       0.466468        12.6933 
 168   0.0000       0.472266        12.8510 
 169   0.0000       0.480140        13.0653 
 170   0.0000       0.480867        13.0851 
 171   0.0000       0.481303        13.0969 
 172   0.0000       0.493217        13.4211 
 173   0.0000       0.506964        13.7952 
 174   0.0000       0.508901        13.8479 
 175   0.0000       0.513772        13.9805 
 176   0.0000       0.515447        14.0260 
 177   0.0000       0.516756        14.0617 
 178   0.0000       0.519467        14.1354 
 179   0.0000       0.525678        14.3044 
 180   0.0000       0.529902        14.4194 
 181   0.0000       0.542152        14.7527 
 182   0.0000       0.543270        14.7831 
 183   0.0000       0.547751        14.9051 
 184   0.0000       0.549599        14.9553 
 185   0.0000       0.555096        15.1049 
 186   0.0000       0.557475        15.1697 
 187   0.0000       0.570787        15.5319 
 188   0.0000       0.575010        15.6468 
 189   0.0000       0.577532        15.7154 
 190   0.0000       0.580873        15.8064 
 191   0.0000       0.585112        15.9217 
 192   0.0000       0.601739        16.3742 
 193   0.0000       0.620224        16.8771 
 194   0.0000       0.633916        17.2497 
 195   0.0000       0.634648        17.2696 
 196   0.0000       0.637196        17.3390 
 197   0.0000       0.637699        17.3527 
 198   0.0000       0.638754        17.3814 
 199   0.0000       0.642575        17.4853 
 200   0.0000       0.646817        17.6008 
 201   0.0000       0.650134        17.6911 
 202   0.0000       0.653074        17.7711 
 203   0.0000       0.662905        18.0386 
 204   0.0000       0.667377        18.1603 
 205   0.0000       0.667826        18.1725 
 206   0.0000       0.672407        18.2971 
 207   0.0000       0.677576        18.4378 
 208   0.0000       0.681791        18.5525 
 209   0.0000       0.684560        18.6278 
 210   0.0000       0.692801        18.8521 
 211   0.0000       0.696291        18.9470 
 212   0.0000       0.699908        19.0455 
 213   0.0000       0.708947        19.2914 
 214   0.0000       0.724766        19.7219 
 215   0.0000       0.724892        19.7253 
 216   0.0000       0.730428        19.8760 
 217   0.0000       0.737429        20.0665 
 218   0.0000       0.740994        20.1635 
 219   0.0000       0.747227        20.3331 
 220   0.0000       0.760920        20.7057 
 221   0.0000       0.762221        20.7411 
 222   0.0000       0.767904        20.8957 
 223   0.0000       0.768556        20.9135 
 224   0.0000       0.776865        21.1396 
 225   0.0000       0.782323        21.2881 
 226   0.0000       0.782341        21.2886 
 227   0.0000       0.782698        21.2983 
 228   0.0000       0.784650        21.3514 
 229   0.0000       0.791837        21.5470 
 230   0.0000       0.793270        21.5860 
 231   0.0000       0.794314        21.6144 
 232   0.0000       0.795530        21.6475 
 233   0.0000       0.805855        21.9284 
 234   0.0000       0.813559        22.1381 
 235   0.0000       0.827039        22.5049 
 236   0.0000       0.828896        22.5554 
 237   0.0000       0.833617        22.6839 
 238   0.0000       0.837827        22.7984 
 239   0.0000       0.839511        22.8442 
 240   0.0000       0.845936        23.0191 
 241   0.0000       0.856304        23.3012 
 242   0.0000       0.864239        23.5171 
 243   0.0000       0.864822        23.5330 
 244   0.0000       0.870837        23.6967 
 245   0.0000       0.872466        23.7410 
 246   0.0000       0.882525        24.0147 
 247   0.0000       0.889778        24.2121 
 248   0.0000       0.891733        24.2653 
 249   0.0000       0.893093        24.3023 
 250   0.0000       0.900556        24.5054 
 251   0.0000       0.901340        24.5267 
 252   0.0000       0.911642        24.8070 
 253   0.0000       0.918024        24.9807 
 254   0.0000       0.921470        25.0745 
 255   0.0000       0.924793        25.1649 
 256   0.0000       0.930772        25.3276 
 257   0.0000       0.938938        25.5498 
 258   0.0000       0.950406        25.8619 
 259   0.0000       0.951581        25.8938 
 260   0.0000       0.963790        26.2261 
 261   0.0000       0.978550        26.6277 
 262   0.0000       0.997003        27.1298 
 263   0.0000       1.001188        27.2437 
 264   0.0000       1.004670        27.3385 
 265   0.0000       1.019023        27.7290 
 266   0.0000       1.021220        27.7888 
 267   0.0000       1.023115        27.8404 
 268   0.0000       1.027703        27.9652 
 269   0.0000       1.051234        28.6055 
 270   0.0000       1.053730        28.6734 
 271   0.0000       1.053756        28.6742 
 272   0.0000       1.075176        29.2570 
 273   0.0000       1.075383        29.2627 
 274   0.0000       1.077436        29.3185 
 275   0.0000       1.081353        29.4251 
 276   0.0000       1.099172        29.9100 
 277   0.0000       1.101002        29.9598 
 278   0.0000       1.116208        30.3736 
 279   0.0000       1.118660        30.4403 
 280   0.0000       1.120585        30.4927 
 281   0.0000       1.128067        30.6963 
 282   0.0000       1.134499        30.8713 
 283   0.0000       1.137319        30.9480 
 284   0.0000       1.199081        32.6286 
 285   0.0000       1.199723        32.6461 
 286   0.0000       1.202563        32.7234 
 287   0.0000       1.205760        32.8104 
 288   0.0000       1.219429        33.1823 
 289   0.0000       1.226702        33.3803 
 290   0.0000       1.228866        33.4391 
 291   0.0000       1.237425        33.6720 
 292   0.0000       1.243759        33.8444 
 293   0.0000       1.244817        33.8732 
 294   0.0000       1.255068        34.1521 
 295   0.0000       1.259635        34.2764 
 296   0.0000       1.270217        34.5644 
 297   0.0000       1.273312        34.6486 
 298   0.0000       1.280246        34.8373 
 299   0.0000       1.282001        34.8850 
 300   0.0000       1.282960        34.9111 
 301   0.0000       1.284473        34.9523 
 302   0.0000       1.288565        35.0636 
 303   0.0000       1.292366        35.1671 
 304   0.0000       1.304225        35.4898 
 305   0.0000       1.312243        35.7079 
 306   0.0000       1.321563        35.9616 
 307   0.0000       1.327891        36.1337 
 308   0.0000       1.337569        36.3971 
 309   0.0000       1.344983        36.5989 
 310   0.0000       1.362646        37.0795 
 311   0.0000       1.366450        37.1830 
 312   0.0000       1.369053        37.2538 
 313   0.0000       1.369372        37.2625 
 314   0.0000       1.370963        37.3058 
 315   0.0000       1.373680        37.3797 
 316   0.0000       1.384720        37.6801 
 317   0.0000       1.392667        37.8964 
 318   0.0000       1.396343        37.9964 
 319   0.0000       1.402041        38.1515 
 320   0.0000       1.407294        38.2944 
 321   0.0000       1.414566        38.4923 
 322   0.0000       1.419613        38.6296 
 323   0.0000       1.436921        39.1006 
 324   0.0000       1.452410        39.5221 
 325   0.0000       1.460361        39.7384 
 326   0.0000       1.465585        39.8806 
 327   0.0000       1.474382        40.1200 
 328   0.0000       1.491704        40.5913 
 329   0.0000       1.493697        40.6456 
 330   0.0000       1.497245        40.7421 
 331   0.0000       1.505525        40.9674 
 332   0.0000       1.514678        41.2165 
 333   0.0000       1.516383        41.2629 
 334   0.0000       1.519553        41.3491 
 335   0.0000       1.522514        41.4297 
 336   0.0000       1.542373        41.9701 
 337   0.0000       1.543364        41.9971 
 338   0.0000       1.547683        42.1146 
 339   0.0000       1.550490        42.1910 
 340   0.0000       1.558152        42.3995 
 341   0.0000       1.564932        42.5840 
 342   0.0000       1.569183        42.6996 
 343   0.0000       1.572847        42.7993 
 344   0.0000       1.574197        42.8361 
 345   0.0000       1.584641        43.1203 
 346   0.0000       1.593964        43.3740 
 347   0.0000       1.596747        43.4497 
 348   0.0000       1.625783        44.2398 
 349   0.0000       1.628942        44.3258 
 350   0.0000       1.631450        44.3940 
 351   0.0000       1.634214        44.4692 
 352   0.0000       1.641371        44.6640 
 353   0.0000       1.647967        44.8435 
 354   0.0000       1.654410        45.0188 
 355   0.0000       1.654964        45.0339 
 356   0.0000       1.655214        45.0407 
 357   0.0000       1.656092        45.0645 
 358   0.0000       1.660780        45.1921 
 359   0.0000       1.660846        45.1939 
 360   0.0000       1.709497        46.5178 
 361   0.0000       1.711675        46.5770 
 362   0.0000       1.716145        46.6987 
 363   0.0000       1.723488        46.8985 
 364   0.0000       1.726622        46.9838 
 365   0.0000       1.729100        47.0512 
 366   0.0000       1.730296        47.0838 
[...]
     73       0.109872  -0.070099   0.000888
     74      -0.000013   0.000009  -0.000000
     75      -0.000622   0.001269  -0.000015
     76       0.193910  -0.145561   0.003467
     77      -0.000007   0.000005  -0.000000
     78      -0.000031   0.004816  -0.000035
     79       0.038706  -0.239720   0.002689
     80      -0.000001   0.000007   0.000000
     81       0.014017  -0.223717   0.002349
     82       0.007212  -0.132904   0.001401
     83       0.000000  -0.000005   0.000000
     84      -0.208197  -0.496096   0.002563
     85      -0.127031  -0.301601   0.001586
     86      -0.000005  -0.000012   0.000000
     87      -0.240311  -0.556229   0.004422
     88       0.136514   0.316188  -0.002481
     89      -0.000015  -0.000034   0.000000
     90      -0.004998  -0.012676   0.003785
     91       0.003668   0.009119  -0.001718
     92      -0.000000  -0.000001   0.000000
     93      -0.000232   0.000223   0.016774
     94       0.039120  -0.019178  -0.884576
     95      -0.000001   0.000000   0.000029
     96      -0.020057   0.003623  -0.395473
     97      -0.013847   0.002801  -0.227750
     98      -0.000000   0.000000  -0.000011
     99      -0.537207   0.169766  -0.024952
    100      -0.324777   0.102690  -0.013607
    101      -0.000013   0.000004  -0.000001
    102      -0.528484   0.170425  -0.009458
    103       0.302156  -0.097163   0.005823
    104      -0.000031   0.000010  -0.000001


-----------
IR SPECTRUM
-----------

 Mode   freq       eps      Int      T**2         TX        TY        TZ
       cm**-1   L/(mol*cm) km/mol    a.u.
----------------------------------------------------------------------------
  6:     88.44   0.000000    0.00  0.000001  ( 0.000031 -0.000001 -0.001114)
  7:     90.78   0.000014    0.07  0.000049  (-0.000040 -0.000009  0.007027)
  8:    124.72   0.001215    6.14  0.003039  (-0.000001  0.000027 -0.055127)
  9:    167.61   0.000005    0.02  0.000008  (-0.000006  0.000031 -0.002898)
 10:    227.88   0.000014    0.07  0.000020  ( 0.000003  0.000021  0.004427)
 11:    298.06   0.000000    0.00  0.000000  ( 0.000020 -0.000021  0.000524)
 12:    299.74   0.000000    0.00  0.000000  (-0.000003  0.000002 -0.000066)
 13:    301.42   0.000004    0.02  0.000004  ( 0.000016  0.000004 -0.002096)
 14:    312.97   0.000077    0.39  0.000077  ( 0.000016 -0.000029  0.008775)
 15:    369.34   0.000042    0.21  0.000035  ( 0.005201 -0.002890 -0.000000)
 16:    371.75   0.000008    0.04  0.000007  ( 0.000619  0.002527  0.000000)
 17:    384.02   0.000767    3.88  0.000623  ( 0.016517 -0.018717  0.000002)
 18:    390.18   0.000518    2.62  0.000415  (-0.014192 -0.014602 -0.000001)
 19:    456.27   0.000125    0.63  0.000085  ( 0.000001  0.000009  0.009243)
 20:    465.69   0.000171    0.86  0.000115  ( 0.000003  0.000021 -0.010709)
 21:    478.68   0.000018    0.09  0.000012  (-0.000086 -0.003426 -0.000001)
 22:    495.73   0.000004    0.02  0.000002  (-0.001477  0.000440  0.000001)
 23:    496.23   0.000008    0.04  0.000005  ( 0.002085  0.000742  0.000001)
 24:    501.16   0.000031    0.16  0.000019  (-0.003037  0.003193  0.000000)
 25:    534.08   0.000660    3.33  0.000385  ( 0.000008  0.000001  0.019630)
 26:    554.32   0.001068    5.40  0.000601  (-0.000009 -0.000000  0.024525)
 27:    564.87   0.001894    9.57  0.001046  (-0.000001  0.000008 -0.032349)
 28:    571.39   0.000038    0.19  0.000021  ( 0.002655 -0.003678 -0.000000)
 29:    578.86   0.004475   22.61  0.002412  (-0.000001  0.000010 -0.049116)
 30:    642.33   0.000031    0.16  0.000015  (-0.000073  0.003872 -0.000001)
 31:    663.00   0.000039    0.20  0.000019  ( 0.000007  0.000002 -0.004304)
 32:    682.36   0.000014    0.07  0.000006  ( 0.002533  0.000074 -0.000001)
 33:    685.60   0.000011    0.05  0.000005  (-0.000002  0.000005 -0.002217)
 34:    689.33   0.000047    0.24  0.000021  (-0.002614 -0.003813  0.000000)
 35:    691.16   0.000002    0.01  0.000001  ( 0.000036  0.001046 -0.000003)
 36:    695.89   0.000087    0.44  0.000039  (-0.000002 -0.000016 -0.006264)
 37:    778.54   0.001654    8.36  0.000663  ( 0.023432  0.010664  0.000002)
 38:    786.80   0.001713    8.66  0.000679  (-0.006918  0.025130  0.000000)
 39:    789.51   0.000024    0.12  0.000009  (-0.000009  0.000024 -0.003074)
 40:    799.64   0.000003    0.02  0.000001  ( 0.000017 -0.000012 -0.001109)
 41:    812.24   0.000188    0.95  0.000072  ( 0.000004 -0.000013  0.008488)
 42:    837.90   0.000019    0.10  0.000007  (-0.002085 -0.001701 -0.000001)
 43:    839.71   0.000064    0.32  0.000024  ( 0.000639 -0.004825 -0.000006)
 44:    854.17   0.000772    3.90  0.000282  ( 0.000009 -0.000024  0.016793)
 45:    864.75   0.000202    1.02  0.000073  (-0.000021  0.000007 -0.008536)
 46:    870.99   0.000002    0.01  0.000001  (-0.000015 -0.000009 -0.000873)
 47:    883.39   0.007955   40.20  0.002810  (-0.000003 -0.000023  0.053012)
 48:    893.69   0.019814  100.13  0.006919  ( 0.000010 -0.000008 -0.083180)
 49:    939.85   0.000018    0.09  0.000006  (-0.001353  0.002069  0.000000)
 50:    976.93   0.000000    0.00  0.000000  ( 0.000033  0.000103 -0.000270)
 51:    979.62   0.000000    0.00  0.000000  ( 0.000012  0.000033 -0.000296)
 52:    985.47   0.000007    0.03  0.000002  ( 0.000004  0.000023  0.001457)
 53:    990.38   0.000015    0.08  0.000005  (-0.000003  0.000001 -0.002196)
 54:    995.51   0.000002    0.01  0.000001  (-0.000010  0.000023 -0.000813)
 55:   1000.53   0.000005    0.02  0.000001  (-0.000022 -0.000011  0.001210)
 56:   1018.35   0.000061    0.31  0.000019  ( 0.001980 -0.003825 -0.000001)
 57:   1023.27   0.000004    0.02  0.000001  (-0.001009 -0.000488  0.000001)
 58:   1062.28   0.000045    0.23  0.000013  (-0.003613 -0.000310 -0.000002)
 59:   1141.37   0.000145    0.73  0.000040  ( 0.004698 -0.004177 -0.000000)
 60:   1159.53   0.001634    8.26  0.000440  (-0.010561 -0.018119  0.000002)
 61:   1171.68   0.001237    6.25  0.000329  (-0.015052  0.010139 -0.000001)
 62:   1182.44   0.000052    0.27  0.000014  (-0.003225 -0.001858 -0.000001)
 63:   1184.73   0.000090    0.46  0.000024  (-0.000670 -0.004828 -0.000000)
 64:   1201.30   0.000023    0.12  0.000006  (-0.001534  0.001888  0.000001)
 65:   1215.14   0.000132    0.67  0.000034  ( 0.005702 -0.001209  0.000002)
 66:   1244.49   0.000093    0.47  0.000023  ( 0.004763 -0.000760  0.000001)
 67:   1249.10   0.000062    0.32  0.000016  (-0.001100  0.003791  0.000001)
 68:   1254.50   0.000100    0.51  0.000025  ( 0.004274  0.002587  0.000000)
 69:   1257.41   0.000013    0.06  0.000003  (-0.001440 -0.001026 -0.000000)
 70:   1260.66   0.000001    0.00  0.000000  (-0.000434 -0.000002  0.000001)
 71:   1332.96   0.002760   13.95  0.000646  (-0.019066  0.016809 -0.000001)
 72:   1342.93   0.004571   23.10  0.001062  (-0.021253 -0.024708  0.000000)
 73:   1384.20   0.000690    3.49  0.000156  ( 0.005304 -0.011288 -0.000000)
 74:   1391.06   0.000327    1.66  0.000073  (-0.007743  0.003675 -0.000000)
 75:   1405.60   0.000338    1.71  0.000075  ( 0.004829 -0.007188  0.000000)
 76:   1439.60   0.000006    0.03  0.000001  (-0.000978 -0.000522  0.000001)
 77:   1441.51   0.000035    0.17  0.000007  ( 0.000162 -0.002729 -0.000001)
 78:   1452.87   0.000025    0.12  0.000005  ( 0.002025 -0.001079  0.000001)
 79:   1457.09   0.000046    0.23  0.000010  ( 0.002589  0.001758  0.000000)
 80:   1476.37   0.000046    0.23  0.000010  (-0.001040 -0.002953  0.000001)
 81:   1482.36   0.000011    0.06  0.000002  (-0.000402  0.001471  0.000000)
 82:   1490.83   0.000188    0.95  0.000039  (-0.002255  0.005855 -0.000001)
 83:   1507.40   0.000006    0.03  0.000001  ( 0.001015  0.000479  0.000001)
 84:   1543.18   0.000759    3.84  0.000154  (-0.008922 -0.008598 -0.000000)
 85:   1556.39   0.001099    5.55  0.000220  (-0.006278  0.013450 -0.000001)
 86:   1558.32   0.000094    0.47  0.000019  (-0.000725  0.004268 -0.000000)
 87:   1591.74   0.000128    0.65  0.000025  (-0.003591  0.003487  0.000000)
 88:   1621.72   0.000182    0.92  0.000035  (-0.001894  0.005605 -0.000000)
 89:   1667.57   0.000487    2.46  0.000091  ( 0.004503  0.008413 -0.000000)
 90:   1683.17   0.001562    7.89  0.000290  ( 0.003182  0.016716  0.000000)
 91:   1692.09   0.000560    2.83  0.000103  (-0.009958 -0.002018 -0.000000)
 92:   1696.26   0.000147    0.74  0.000027  (-0.002085  0.004759 -0.000001)
 93:   1697.12   0.000527    2.66  0.000097  (-0.009747  0.001366 -0.000001)
 94:   3202.07   0.000075    0.38  0.000007  ( 0.002504  0.001018 -0.000000)
 95:   3202.57   0.000064    0.32  0.000006  (-0.002490  0.000104 -0.000000)
 96:   3202.87   0.000241    1.22  0.000023  ( 0.002337 -0.004241  0.000000)
 97:   3203.12   0.000017    0.09  0.000002  ( 0.000404  0.001239  0.000000)
 98:   3203.44   0.000055    0.28  0.000005  (-0.001174 -0.002000  0.000000)
 99:   3208.29   0.000299    1.51  0.000029  (-0.004109 -0.003486 -0.000000)
100:   3218.61   0.000447    2.26  0.000043  (-0.006115  0.002430 -0.000001)
101:   3219.49   0.002569   12.99  0.000249  (-0.001942 -0.015662  0.000000)
102:   3220.18   0.004771   24.11  0.000462  ( 0.021123 -0.004017  0.000001)
103:   3220.50   0.001549    7.83  0.000150  ( 0.009974  0.007113  0.000000)
104:   3227.98   0.001409    7.12  0.000136  ( 0.006987  0.009347  0.000000)

* The epsilon (eps) is given for a Dirac delta lineshape.
** The dipole moment derivative (T) already includes vibrational overlap.

The first frequency considered to be a vibration is 6
The total number of vibrations considered is 99


--------------------------
THERMOCHEMISTRY AT 298.15K
--------------------------

Temperature         ... 298.15 K
Pressure            ... 1.00 atm
Total Mass          ... 299.35 AMU

Throughout the following assumptions are being made:
  (1) The electronic state is orbitally nondegenerate
      but the spin degeneracy is treated
  (2) There are no thermally accessible electronically excited states
  (3) Hindered rotations indicated by low frequency modes are not
      treated as such but are treated as vibrations and this may
      cause some error
  (4) All equations used are the standard statistical mechanics
      equations for an ideal gas
  (5) All vibrations are strictly harmonic

freq.      88.44  E(vib)   ...       0.48 
freq.      90.78  E(vib)   ...       0.47 
freq.     124.72  E(vib)   ...       0.43 
freq.     167.61  E(vib)   ...       0.38 
freq.     227.88  E(vib)   ...       0.33 
freq.     298.06  E(vib)   ...       0.27 
freq.     299.74  E(vib)   ...       0.26 
freq.     301.42  E(vib)   ...       0.26 
freq.     312.97  E(vib)   ...       0.25 
freq.     369.34  E(vib)   ...       0.21 
freq.     371.75  E(vib)   ...       0.21 
freq.     384.02  E(vib)   ...       0.20 
freq.     390.18  E(vib)   ...       0.20 
freq.     456.27  E(vib)   ...       0.16 
freq.     465.69  E(vib)   ...       0.16 
freq.     478.68  E(vib)   ...       0.15 
freq.     495.73  E(vib)   ...       0.14 
freq.     496.23  E(vib)   ...       0.14 
freq.     501.16  E(vib)   ...       0.14 
freq.     534.08  E(vib)   ...       0.13 
freq.     554.32  E(vib)   ...       0.12 
freq.     564.87  E(vib)   ...       0.11 
freq.     571.39  E(vib)   ...       0.11 
freq.     578.86  E(vib)   ...       0.11 
freq.     642.33  E(vib)   ...       0.09 
freq.     663.00  E(vib)   ...       0.08 
freq.     682.36  E(vib)   ...       0.08 
freq.     685.60  E(vib)   ...       0.07 
freq.     689.33  E(vib)   ...       0.07 
freq.     691.16  E(vib)   ...       0.07 
freq.     695.89  E(vib)   ...       0.07 
freq.     778.54  E(vib)   ...       0.05 
freq.     786.80  E(vib)   ...       0.05 
freq.     789.51  E(vib)   ...       0.05 
freq.     799.64  E(vib)   ...       0.05 
freq.     812.24  E(vib)   ...       0.05 
freq.     837.90  E(vib)   ...       0.04 
freq.     839.71  E(vib)   ...       0.04 
freq.     854.17  E(vib)   ...       0.04 
freq.     864.75  E(vib)   ...       0.04 
freq.     870.99  E(vib)   ...       0.04 
freq.     883.39  E(vib)   ...       0.04 
freq.     893.69  E(vib)   ...       0.03 
freq.     939.85  E(vib)   ...       0.03 
freq.     976.93  E(vib)   ...       0.03 
freq.     979.62  E(vib)   ...       0.03 
freq.     985.47  E(vib)   ...       0.02 
freq.     990.38  E(vib)   ...       0.02 
freq.     995.51  E(vib)   ...       0.02 
freq.    1000.53  E(vib)   ...       0.02 
freq.    1018.35  E(vib)   ...       0.02 
freq.    1023.27  E(vib)   ...       0.02 
freq.    1062.28  E(vib)   ...       0.02 
freq.    1141.37  E(vib)   ...       0.01 
freq.    1159.53  E(vib)   ...       0.01 
freq.    1171.68  E(vib)   ...       0.01 
freq.    1182.44  E(vib)   ...       0.01 
freq.    1184.73  E(vib)   ...       0.01 
freq.    1201.30  E(vib)   ...       0.01 
freq.    1215.14  E(vib)   ...       0.01 
freq.    1244.49  E(vib)   ...       0.01 
freq.    1249.10  E(vib)   ...       0.01 
freq.    1254.50  E(vib)   ...       0.01 
freq.    1257.41  E(vib)   ...       0.01 
freq.    1260.66  E(vib)   ...       0.01 
freq.    1332.96  E(vib)   ...       0.01 
freq.    1342.93  E(vib)   ...       0.01 
freq.    1384.20  E(vib)   ...       0.00 
freq.    1391.06  E(vib)   ...       0.00 
freq.    1405.60  E(vib)   ...       0.00 
freq.    1439.60  E(vib)   ...       0.00 
freq.    1441.51  E(vib)   ...       0.00 
freq.    1452.87  E(vib)   ...       0.00 
freq.    1457.09  E(vib)   ...       0.00 
freq.    1476.37  E(vib)   ...       0.00 
freq.    1482.36  E(vib)   ...       0.00 
freq.    1490.83  E(vib)   ...       0.00 
freq.    1507.40  E(vib)   ...       0.00 
freq.    1543.18  E(vib)   ...       0.00 
freq.    1556.39  E(vib)   ...       0.00 
freq.    1558.32  E(vib)   ...       0.00 
freq.    1591.74  E(vib)   ...       0.00 
freq.    1621.72  E(vib)   ...       0.00 
freq.    1667.57  E(vib)   ...       0.00 
freq.    1683.17  E(vib)   ...       0.00 
freq.    1692.09  E(vib)   ...       0.00 
freq.    1696.26  E(vib)   ...       0.00 
freq.    1697.12  E(vib)   ...       0.00 
freq.    3202.07  E(vib)   ...       0.00 
freq.    3202.57  E(vib)   ...       0.00 
freq.    3202.87  E(vib)   ...       0.00 
freq.    3203.12  E(vib)   ...       0.00 
freq.    3203.44  E(vib)   ...       0.00 
freq.    3208.29  E(vib)   ...       0.00 
freq.    3218.61  E(vib)   ...       0.00 
freq.    3219.49  E(vib)   ...       0.00 
freq.    3220.18  E(vib)   ...       0.00 
freq.    3220.50  E(vib)   ...       0.00 
freq.    3227.98  E(vib)   ...       0.00 

------------
INNER ENERGY
------------

The inner energy is: U= E(el) + E(ZPE) + E(vib) + E(rot) + E(trans)
    E(el)   - is the total energy from the electronic structure calculation
              = E(kin-el) + E(nuc-el) + E(el-el) + E(nuc-nuc)
    E(ZPE)  - the the zero temperature vibrational energy from the frequency calculation
    E(vib)  - the the finite temperature correction to E(ZPE) due to population
              of excited vibrational states
    E(rot)  - is the rotational thermal energy
    E(trans)- is the translational thermal energy

Summary of contributions to the inner energy U:
Electronic energy                ...   -921.16138284 Eh
Zero point energy                ...      0.27023903 Eh     169.58 kcal/mol
Thermal vibrational correction   ...      0.01103730 Eh       6.93 kcal/mol
Thermal rotational correction    ...      0.00141627 Eh       0.89 kcal/mol
Thermal translational correction ...      0.00141627 Eh       0.89 kcal/mol
-----------------------------------------------------------------------
Total thermal energy                   -920.87727398 Eh


Summary of corrections to the electronic energy:
(perhaps to be used in another calculation)
Total thermal correction                  0.01386984 Eh       8.70 kcal/mol
Non-thermal (ZPE) correction              0.27023903 Eh     169.58 kcal/mol
-----------------------------------------------------------------------
Total correction                          0.28410887 Eh     178.28 kcal/mol


--------
ENTHALPY
--------

The enthalpy is H = U + kB*T
                kB is Boltzmann's constant
Total free energy                 ...   -920.87727398 Eh 
Thermal Enthalpy correction       ...      0.00094421 Eh       0.59 kcal/mol
-----------------------------------------------------------------------
Total Enthalpy                    ...   -920.87632977 Eh


Note: Rotational entropy computed according to Herzberg 
Infrared and Raman Spectra, Chapter V,1, Van Nostrand Reinhold, 1945 
Point Group:  Cs, Symmetry Number:   1  
Rotational constants in cm-1:     0.011446     0.011202     0.005661 

Vibrational entropy computed according to the QRRHO of S. Grimme
Chem.Eur.J. 2012 18 9955


-------
ENTROPY
-------

The entropy contributions are T*S = T*(S(el)+S(vib)+S(rot)+S(trans))
     S(el)   - electronic entropy
     S(vib)  - vibrational entropy
     S(rot)  - rotational entropy
     S(trans)- translational entropy
The entropies will be listed as multiplied by the temperature to get
units of energy

Electronic entropy                ...      0.00065446 Eh      0.41 kcal/mol
Vibrational entropy               ...      0.01741723 Eh     10.93 kcal/mol
Rotational entropy                ...      0.01618425 Eh     10.16 kcal/mol
Translational entropy             ...      0.02042411 Eh     12.82 kcal/mol
-----------------------------------------------------------------------
Final entropy term                ...      0.05468005 Eh     34.31 kcal/mol

In case the symmetry of your molecule has not been determined correctly
or in case you have a reason to use a different symmetry number we print 
out the resulting rotational entropy values for sn=1,12 :
 --------------------------------------------------------
|  sn= 1 | S(rot)=       0.01618425 Eh     10.16 kcal/mol|
|  sn= 2 | S(rot)=       0.01552979 Eh      9.75 kcal/mol|
|  sn= 3 | S(rot)=       0.01514696 Eh      9.50 kcal/mol|
|  sn= 4 | S(rot)=       0.01487534 Eh      9.33 kcal/mol|
|  sn= 5 | S(rot)=       0.01466465 Eh      9.20 kcal/mol|
|  sn= 6 | S(rot)=       0.01449250 Eh      9.09 kcal/mol|
|  sn= 7 | S(rot)=       0.01434696 Eh      9.00 kcal/mol|
|  sn= 8 | S(rot)=       0.01422088 Eh      8.92 kcal/mol|
|  sn= 9 | S(rot)=       0.01410967 Eh      8.85 kcal/mol|
|  sn=10 | S(rot)=       0.01401019 Eh      8.79 kcal/mol|
|  sn=11 | S(rot)=       0.01392020 Eh      8.74 kcal/mol|
|  sn=12 | S(rot)=       0.01383805 Eh      8.68 kcal/mol|
 --------------------------------------------------------


-------------------
GIBBS FREE ENERGY
-------------------

The Gibbs free energy is G = H - T*S

Total enthalpy                    ...   -920.87632977 Eh 
Total entropy correction          ...     -0.05468005 Eh    -34.31 kcal/mol
-----------------------------------------------------------------------
Final Gibbs free energy         ...   -920.93100981 Eh

For completeness - the Gibbs free energy minus the electronic energy
G-E(el)                           ...      0.23037303 Eh    144.56 kcal/mol


Timings for individual modules:

Sum of individual times         ...    30966.172 sec (= 516.103 min)
GTO integral calculation        ...       25.070 sec (=   0.418 min)   0.1 %
SCF iterations                  ...     4008.227 sec (=  66.804 min)  12.9 %
SCF Gradient evaluation         ...      948.033 sec (=  15.801 min)   3.1 %
Geometry relaxation             ...        1.259 sec (=   0.021 min)   0.0 %
Analytical frequency calculation...    25983.583 sec (= 433.060 min)  83.9 %
                             ****ORCA TERMINATED NORMALLY****
TOTAL RUN TIME: 0 days 8 hours 36 minutes 13 seconds 816 msec
