
                                 *****************
                                 * O   R   C   A *
                                 *****************

                                            #,                                       
                                            ###                                      
                                            ####                                     
                                            #####                                    
                                            ######                                   
                                           ########,                                 
                                     ,,################,,,,,                         
                               ,,#################################,,                 
                          ,,##########################################,,             
                       ,#########################################, ''#####,          
                    ,#############################################,,   '####,        
                  ,##################################################,,,,####,       
                ,###########''''           ''''###############################       
              ,#####''   ,,,,##########,,,,          '''####'''          '####       
            ,##' ,,,,###########################,,,                        '##       
           ' ,,###''''                  '''############,,,                           
         ,,##''                                '''############,,,,        ,,,,,,###''
      ,#''                                            '''#######################'''  
     '                                                          ''''####''''         
             ,#######,   #######,   ,#######,      ##                                
            ,#'     '#,  ##    ##  ,#'     '#,    #''#        ######   ,####,        
            ##       ##  ##   ,#'  ##            #'  '#       #        #'  '#        
            ##       ##  #######   ##           ,######,      #####,   #    #        
            '#,     ,#'  ##    ##  '#,     ,#' ,#      #,         ##   #,  ,#        
             '#######'   ##     ##  '#######'  #'      '#     #####' # '####'        



                  #######################################################
                  #                        -***-                        #
                  #          Department of theory and spectroscopy      #
                  #    Directorship and core code : Frank Neese         #
                  #        Max Planck Institute fuer Kohlenforschung    #
                  #                Kaiser Wilhelm Platz 1               #
                  #                 D-45470 Muelheim/Ruhr               #
                  #                      Germany                        #
                  #                                                     #
                  #                  All rights reserved                #
                  #                        -***-                        #
                  #######################################################



                         Program Version 5.0.4 -  RELEASE  -

 With contributions from (in alphabetic order):
   Daniel Aravena         : Magnetic Suceptibility
   Michael Atanasov       : Ab Initio Ligand Field Theory (pilot matlab implementation)
   Alexander A. Auer      : GIAO ZORA, VPT2 properties, NMR spectrum
   Ute Becker             : Parallelization
   Giovanni Bistoni       : ED, misc. LED, open-shell LED, HFLD
   Martin Brehm           : Molecular dynamics
   Dmytro Bykov           : SCF Hessian
   Vijay G. Chilkuri      : MRCI spin determinant printing, contributions to CSF-ICE
   Dipayan Datta          : RHF DLPNO-CCSD density
   Achintya Kumar Dutta   : EOM-CC, STEOM-CC
   Dmitry Ganyushin       : Spin-Orbit,Spin-Spin,Magnetic field MRCI
   Miquel Garcia          : C-PCM and meta-GGA Hessian, CC/C-PCM, Gaussian charge scheme
   Yang Guo               : DLPNO-NEVPT2, F12-NEVPT2, CIM, IAO-localization
   Andreas Hansen         : Spin unrestricted coupled pair/coupled cluster methods
   Benjamin Helmich-Paris : MC-RPA, TRAH-SCF, COSX integrals
   Lee Huntington         : MR-EOM, pCC
   Robert Izsak           : Overlap fitted RIJCOSX, COSX-SCS-MP3, EOM
   Marcus Kettner         : VPT2
   Christian Kollmar      : KDIIS, OOCD, Brueckner-CCSD(T), CCSD density, CASPT2, CASPT2-K
   Simone Kossmann        : Meta GGA functionals, TD-DFT gradient, OOMP2, MP2 Hessian
   Martin Krupicka        : Initial AUTO-CI
   Lucas Lang             : DCDCAS
   Marvin Lechner         : AUTO-CI (C++ implementation), FIC-MRCC
   Dagmar Lenk            : GEPOL surface, SMD
   Dimitrios Liakos       : Extrapolation schemes; Compound Job, initial MDCI parallelization
   Dimitrios Manganas     : Further ROCIS development; embedding schemes
   Dimitrios Pantazis     : SARC Basis sets
   Anastasios Papadopoulos: AUTO-CI, single reference methods and gradients
   Taras Petrenko         : DFT Hessian,TD-DFT gradient, ASA, ECA, R-Raman, ABS, FL, XAS/XES, NRVS
   Peter Pinski           : DLPNO-MP2, DLPNO-MP2 Gradient
   Christoph Reimann      : Effective Core Potentials
   Marius Retegan         : Local ZFS, SOC
   Christoph Riplinger    : Optimizer, TS searches, QM/MM, DLPNO-CCSD(T), (RO)-DLPNO pert. Triples
   Tobias Risthaus        : Range-separated hybrids, TD-DFT gradient, RPA, STAB
   Michael Roemelt        : Original ROCIS implementation
   Masaaki Saitow         : Open-shell DLPNO-CCSD energy and density
   Barbara Sandhoefer     : DKH picture change effects
   Avijit Sen             : IP-ROCIS
   Kantharuban Sivalingam : CASSCF convergence, NEVPT2, FIC-MRCI
   Bernardo de Souza      : ESD, SOC TD-DFT
   Georgi Stoychev        : AutoAux, RI-MP2 NMR, DLPNO-MP2 response
   Willem Van den Heuvel  : Paramagnetic NMR
   Boris Wezisla          : Elementary symmetry handling
   Frank Wennmohs         : Technical directorship


 We gratefully acknowledge several colleagues who have allowed us to
 interface, adapt or use parts of their codes:
   Stefan Grimme, W. Hujo, H. Kruse, P. Pracht,  : VdW corrections, initial TS optimization,
                  C. Bannwarth, S. Ehlert          DFT functionals, gCP, sTDA/sTD-DF
   Ed Valeev, F. Pavosevic, A. Kumar             : LibInt (2-el integral package), F12 methods
   Garnet Chan, S. Sharma, J. Yang, R. Olivares  : DMRG
   Ulf Ekstrom                                   : XCFun DFT Library
   Mihaly Kallay                                 : mrcc  (arbitrary order and MRCC methods)
   Jiri Pittner, Ondrej Demel                    : Mk-CCSD
   Frank Weinhold                                : gennbo (NPA and NBO analysis)
   Christopher J. Cramer and Donald G. Truhlar   : smd solvation model
   Lars Goerigk                                  : TD-DFT with DH, B97 family of functionals
   V. Asgeirsson, H. Jonsson                     : NEB implementation
   FAccTs GmbH                                   : IRC, NEB, NEB-TS, DLPNO-Multilevel, CI-OPT
                                                   MM, QMMM, 2- and 3-layer-ONIOM, Crystal-QMMM,
                                                   LR-CPCM, SF, NACMEs, symmetry and pop. for TD-DFT,
                                                   nearIR, NL-DFT gradient (VV10), updates on ESD,
                                                   ML-optimized integration grids
   S Lehtola, MJT Oliveira, MAL Marques          : LibXC Library
   Liviu Ungur et al                             : ANISO software


 Your calculation uses the libint2 library for the computation of 2-el integrals
 For citations please refer to: http://libint.valeyev.net

 Your ORCA version has been built with support for libXC version: 5.1.0
 For citations please refer to: https://tddft.org/programs/libxc/

 This ORCA versions uses:
   CBLAS   interface :  Fast vector & matrix operations
   LAPACKE interface :  Fast linear algebra routines
   Shared memory     :  Shared parallel matrices


XCFun DFT library Copyright 2009-2010 Ulf Ekstrom and contributors.
See http://admol.org/xcfun for more information.
This is free software; see the source code for copying conditions.
There is ABSOLUTELY NO WARRANTY; not even for MERCHANTABILITY or FITNESS FOR A PARTICULAR PURPOSE.
For details see the documentation.
Scientific users of this library should cite U. Ekstrom, L. Visscher, R. Bast, A. J. Thorvaldsen and K. Ruud;
J.Chem.Theor.Comp. 2010, DOI: 10.1021/ct100117s
XCFun Version 0.99 

================================================================================

----- Orbital basis set information -----
Your calculation utilizes the basis: def2-TZVP
   F. Weigend and R. Ahlrichs, Phys. Chem. Chem. Phys. 7, 3297 (2005).

----- AuxJ basis set information -----
Your calculation utilizes the auxiliary basis: def2/J
   F. Weigend, Phys. Chem. Chem. Phys. 8, 1057 (2006).

================================================================================
                                        WARNINGS
                       Please study these warnings very carefully!
================================================================================


WARNING: Geometry Optimization
  ===> : Switching off AutoStart
         For restart on a previous wavefunction, please use MOREAD

WARNING: Minnesota functionals are quite sensitive to the integration grid.
         see SE Wheeler, KN Houk, JCTC 2010, 6, 395,
             N Mardirossian, M Head-Gordon, JCTC 2016, 12, 4303.
         DEFGRID3 seems to be a minimum grid for reliable results with these functionals!
  ===> : Please increase the integration grid!


INFO   : the flag for use of the SHARK integral package has been found!

================================================================================
                                       INPUT FILE
================================================================================
NAME = eight_four.inp
|  1> !M062X def2-tzvp PAL4 TIGHTOPT FREQ
|  2> 
|  3> %freq
|  4> Temp 298.15,10,20,50,100,6000,8000,10000
|  5> end
|  6> 
|  7> %geom
|  8> maxiter 5000
|  9> end
| 10> 
| 11> 
| 12> 
| 13> * xyz 0 1
| 14>   C   2.45791983499341     -2.80268931379768     -0.00000793519644
| 15>   C   1.28608761308438     -3.49706883370209     -0.00003643606214
| 16>   C   0.03470547919465     -2.82650100714450     -0.00011895547508
| 17>   C   -1.19909611030651     -3.52926406052669     -0.00014738304165
| 18>   C   -2.38727532547159     -2.86387815648029     -0.00022974228995
| 19>   C   -2.43307513493588     -1.44447575303296     -0.00027036473986
| 20>   C   -3.65942351028343     -0.73056692575933     -0.00034869983218
| 21>   C   -3.68143184744779      0.63183680863156     -0.00038756598292
| 22>   C   -2.47654311552349      1.38171086633990     -0.00035715694906
| 23>   C   -2.47435650264592      2.81046534061019     -0.00039831731937
| 24>   C   -1.28561443050281      3.43802142880253     -0.00036151343355
| 25>   C   -0.02057223287027      2.83388218261706     -0.00029010794623
| 26>   C   1.21086686736911      3.53893902602452     -0.00025402239824
| 27>   C   2.39489324957599      2.86551829309080     -0.00018393811888
| 28>   C   2.43517090494280      1.44582754720977     -0.00014049013964
| 29>   C   3.65975900430544      0.72697243056351     -0.00006992784603
| 30>   C   3.67546036802878     -0.63516446298208     -0.00002698908555
| 31>   C   2.46811813995863     -1.38295180399054     -0.00005240219282
| 32>   C   1.24061543792698     -0.69496199420878     -0.00012711748511
| 33>   C   1.22474219035332      0.72698621586077     -0.00017741356338
| 34>   C   -0.01566516709535      1.42103164152461     -0.00024506128700
| 35>   C   -1.24356348643455      0.69923344199718     -0.00028346088976
| 36>   C   -1.22400277498297     -0.72338676000015     -0.00023734960533
| 37>   C   0.01693487392421     -1.41913103104816     -0.00016297130775
| 38>   H   3.40501735040542     -3.32906588787472      0.00005627444163
| 39>   H   1.29296308352502     -4.58060438188898      0.00000142672494
| 40>   H   -1.17896310310274     -4.61257131284734     -0.00011513591155
| 41>   H   -4.58586789409211     -1.29266910376159     -0.00037146429946
| 42>   H   -4.62408845924854      1.16575491725399     -0.00044556872067
| 43>   H   -3.41518424261775      3.34878172120577     -0.00045725814046
| 44>   H   1.18854626437870      4.62103847897618     -0.00028959104089
| 45>   H   3.33130215861300      3.41052642430950     -0.00015763965944
| 46>   H   4.58800492413600      1.28586263822177     -0.00004835142171
| 47>   H   4.61660270482137     -1.17213723898180      0.00002811587814
| 48>   **                         ****END OF INPUT****
================================================================================

                       *****************************
                       * Geometry Optimization Run *
                       *****************************

Geometry optimization settings:
Update method            Update   .... BFGS
Choice of coordinates    CoordSys .... Z-matrix Internals
Initial Hessian          InHess   .... Almoef's Model

Convergence Tolerances:
Energy Change            TolE     ....  1.0000e-06 Eh
Max. Gradient            TolMAXG  ....  1.0000e-04 Eh/bohr
RMS Gradient             TolRMSG  ....  3.0000e-05 Eh/bohr
Max. Displacement        TolMAXD  ....  1.0000e-03 bohr
RMS Displacement         TolRMSD  ....  6.0000e-04 bohr
Strict Convergence                ....  False
------------------------------------------------------------------------------
                        ORCA OPTIMIZATION COORDINATE SETUP
------------------------------------------------------------------------------

The optimization will be done in new redundant internal coordinates
Making redundant internal coordinates   ...  (new redundants) done
Evaluating the initial hessian          ...  (Almloef) done
Evaluating the coordinates              ...  done
Calculating the B-matrix                .... done
Calculating the G-matrix                .... done
Diagonalizing the G-matrix              .... done
The first mode is                       ....  124
The number of degrees of freedom        ....   96

    -----------------------------------------------------------------
                    Redundant Internal Coordinates


    -----------------------------------------------------------------
         Definition                    Initial Value    Approx d2E/dq
    -----------------------------------------------------------------
      1. B(C   1,C   0)                  1.3621         0.692196   
      2. B(C   2,C   1)                  1.4197         0.560163   
      3. B(C   3,C   2)                  1.4199         0.559784   
      4. B(C   4,C   3)                  1.3618         0.692986   
      5. B(C   5,C   4)                  1.4201         0.559307   
      6. B(C   6,C   5)                  1.4190         0.561631   
      7. B(C   7,C   6)                  1.3626         0.691008   
      8. B(C   8,C   7)                  1.4192         0.561288   
      9. B(C   9,C   8)                  1.4288         0.541883   
     10. B(C  10,C   9)                  1.3442         0.739220   
     11. B(C  11,C  10)                  1.4019         0.598077   
     12. B(C  12,C  11)                  1.4190         0.561667   
     13. B(C  13,C  12)                  1.3621         0.692140   
     14. B(C  14,C  13)                  1.4203         0.559059   
     15. B(C  15,C  14)                  1.4200         0.559620   
     16. B(C  16,C  15)                  1.3622         0.691907   
     17. B(C  17,C  16)                  1.4202         0.559263   
     18. B(C  17,C   0)                  1.4198         0.560062   
     19. B(C  18,C  17)                  1.4072         0.586630   
     20. B(C  19,C  18)                  1.4220         0.555426   
     21. B(C  19,C  14)                  1.4078         0.585271   
     22. B(C  20,C  19)                  1.4214         0.556776   
     23. B(C  20,C  11)                  1.4129         0.574471   
     24. B(C  21,C  20)                  1.4243         0.550758   
     25. B(C  21,C   8)                  1.4093         0.582117   
     26. B(C  22,C  21)                  1.4228         0.553963   
     27. B(C  22,C   5)                  1.4078         0.585305   
     28. B(C  23,C  22)                  1.4227         0.554138   
     29. B(C  23,C  18)                  1.4219         0.555694   
     30. B(C  23,C   2)                  1.4075         0.585932   
     31. B(H  24,C   0)                  1.0835         0.368744   
     32. B(H  25,C   1)                  1.0836         0.368724   
     33. B(H  26,C   3)                  1.0835         0.368810   
     34. B(H  27,C   6)                  1.0836         0.368624   
     35. B(H  28,C   7)                  1.0834         0.368991   
     36. B(H  29,C   9)                  1.0839         0.368197   
     37. B(H  30,C  12)                  1.0823         0.370391   
     38. B(H  31,C  13)                  1.0835         0.368850   
     39. B(H  32,C  15)                  1.0835         0.368786   
     40. B(H  33,C  16)                  1.0836         0.368729   
     41. A(C  17,C   0,H  24)          118.6528         0.348293   
     42. A(C   1,C   0,H  24)          120.2864         0.361028   
     43. A(C   1,C   0,C  17)          121.0608         0.434729   
     44. A(C   0,C   1,C   2)          121.1656         0.434743   
     45. A(C   0,C   1,H  25)          120.2857         0.361025   
     46. A(C   2,C   1,H  25)          118.5487         0.348301   
     47. A(C   1,C   2,C   3)          122.1494         0.418521   
     48. A(C   1,C   2,C  23)          118.9086         0.421943   
     49. A(C   3,C   2,C  23)          118.9421         0.421892   
     50. A(C   2,C   3,H  26)          118.6008         0.348275   
     51. A(C   4,C   3,H  26)          120.3137         0.361109   
     52. A(C   2,C   3,C   4)          121.0855         0.434779   
     53. A(C   3,C   4,C   5)          121.0971         0.434712   
     54. A(C   4,C   5,C   6)          122.0536         0.418653   
     55. A(C   6,C   5,C  22)          118.9827         0.422060   
     56. A(C   4,C   5,C  22)          118.9637         0.421748   
     57. A(C   7,C   6,H  27)          120.3210         0.360902   
     58. A(C   5,C   6,H  27)          118.5480         0.348439   
     59. A(C   5,C   6,C   7)          121.1310         0.434813   
     60. A(C   6,C   7,C   8)          120.9710         0.434765   
     61. A(C   8,C   7,H  28)          118.5764         0.348461   
     62. A(C   6,C   7,H  28)          120.4526         0.360963   
     63. A(C   7,C   8,C   9)          121.9842         0.416254   
     64. A(C   9,C   8,C  21)          118.8777         0.418964   
     65. A(C   7,C   8,C  21)          119.1382         0.421603   
     66. A(C   8,C   9,H  29)          119.6893         0.346278   
     67. A(C  10,C   9,H  29)          122.3927         0.365012   
     68. A(C   8,C   9,C  10)          117.9180         0.437299   
     69. A(C   9,C  10,C  11)          126.6422         0.445165   
     70. A(C  12,C  11,C  20)          119.5942         0.420659   
     71. A(C  10,C  11,C  20)          115.7265         0.425408   
     72. A(C  10,C  11,C  12)          124.6793         0.423696   
     73. A(C  11,C  12,H  30)          118.6115         0.348723   
     74. A(C  11,C  12,C  13)          120.5776         0.434946   
     75. A(C  13,C  12,H  30)          120.8109         0.361297   
     76. A(C  12,C  13,H  31)          120.1705         0.361040   
     77. A(C  12,C  13,C  14)          121.2544         0.434582   
     78. A(C  14,C  13,H  31)          118.5751         0.348205   
     79. A(C  13,C  14,C  15)          122.0388         0.418352   
     80. A(C  15,C  14,C  19)          118.8814         0.421785   
     81. A(C  13,C  14,C  19)          119.0799         0.421710   
     82. A(C  14,C  15,C  16)          121.0741         0.434634   
     83. A(C  16,C  15,H  32)          120.3914         0.361009   
     84. A(C  14,C  15,H  32)          118.5345         0.348254   
     85. A(C  17,C  16,H  33)          118.5202         0.348208   
     86. A(C  15,C  16,C  17)          121.1123         0.434585   
     87. A(C  15,C  16,H  33)          120.3675         0.361000   
     88. A(C  16,C  17,C  18)          118.9576         0.421912   
     89. A(C   0,C  17,C  18)          118.8582         0.422020   
     90. A(C   0,C  17,C  16)          122.1842         0.418438   
     91. A(C  17,C  18,C  19)          119.9093         0.421394   
     92. A(C  19,C  18,C  23)          119.9773         0.417343   
     93. A(C  17,C  18,C  23)          120.1134         0.421430   
     94. A(C  18,C  19,C  20)          119.8679         0.417487   
     95. A(C  14,C  19,C  20)          120.0667         0.421402   
     96. A(C  14,C  19,C  18)          120.0654         0.421219   
     97. A(C  11,C  20,C  19)          119.4273         0.420004   
     98. A(C  19,C  20,C  21)          120.3233         0.416860   
     99. A(C  11,C  20,C  21)          120.2494         0.419190   
    100. A(C  20,C  21,C  22)          119.6606         0.416485   
    101. A(C   8,C  21,C  22)          119.7531         0.420615   
    102. A(C   8,C  21,C  20)          120.5863         0.420180   
    103. A(C  21,C  22,C  23)          120.0654         0.416938   
    104. A(C   5,C  22,C  23)          119.9106         0.421049   
    105. A(C   5,C  22,C  21)          120.0240         0.421025   
    106. A(C  18,C  23,C  22)          120.1055         0.417170   
    107. A(C   2,C  23,C  22)          120.0010         0.421129   
    108. A(C   2,C  23,C  18)          119.8934         0.421340   
    109. D(C   2,C   1,C   0,H  24)    179.9999         0.033683   
    110. D(C   2,C   1,C   0,C  17)      0.0003         0.033683   
    111. D(H  25,C   1,C   0,H  24)     -0.0002         0.033683   
    112. D(H  25,C   1,C   0,C  17)   -179.9998         0.033683   
    113. D(C  23,C   2,C   1,H  25)    179.9997         0.021494   
    114. D(C   3,C   2,C   1,H  25)      0.0003         0.021494   
    115. D(C   3,C   2,C   1,C   0)   -179.9999         0.021494   
    116. D(C  23,C   2,C   1,C   0)     -0.0004         0.021494   
    117. D(H  26,C   3,C   2,C   1)     -0.0006         0.021464   
    118. D(H  26,C   3,C   2,C  23)    179.9999         0.021464   
    119. D(C   4,C   3,C   2,C  23)      0.0007         0.021464   
    120. D(C   4,C   3,C   2,C   1)   -179.9999         0.021464   
    121. D(C   5,C   4,C   3,H  26)    179.9999         0.030581   
    122. D(C   5,C   4,C   3,C   2)     -0.0009         0.030581   
    123. D(C   6,C   5,C   4,C   3)   -179.9996         0.019459   
    124. D(C  22,C   5,C   4,C   3)      0.0006         0.019459   
    125. D(H  27,C   6,C   5,C  22)   -179.9999         0.021611   
    126. D(C   7,C   6,C   5,C  22)     -0.0002         0.021611   
    127. D(H  27,C   6,C   5,C   4)      0.0004         0.021611   
    128. D(C   7,C   6,C   5,C   4)   -180.0000         0.021611   
    129. D(C   8,C   7,C   6,H  27)    179.9999         0.033558   
    130. D(H  28,C   7,C   6,H  27)     -0.0002         0.033558   
    131. D(C   8,C   7,C   6,C   5)      0.0003         0.033558   
    132. D(H  28,C   7,C   6,C   5)   -179.9999         0.033558   
    133. D(C  21,C   8,C   7,H  28)   -179.9999         0.021584   
    134. D(C  21,C   8,C   7,C   6)     -0.0001         0.021584   
    135. D(C   9,C   8,C   7,H  28)      0.0001         0.021584   
    136. D(C   9,C   8,C   7,C   6)    179.9999         0.021584   
    137. D(H  29,C   9,C   8,C   7)     -0.0002         0.020068   
    138. D(C  10,C   9,C   8,C  21)     -0.0001         0.020068   
    139. D(C  10,C   9,C   8,C   7)    179.9998         0.020068   
    140. D(H  29,C   9,C   8,C  21)    179.9999         0.020068   
    141. D(C  11,C  10,C   9,H  29)   -179.9998         0.035175   
    142. D(C  11,C  10,C   9,C   8)      0.0002         0.035175   
    143. D(C  20,C  11,C  10,C   9)     -0.0004         0.022365   
    144. D(C  12,C  11,C  10,C   9)    180.0000         0.022365   
    145. D(H  30,C  12,C  11,C  20)    180.0000         0.021614   
    146. D(H  30,C  12,C  11,C  10)     -0.0004         0.021614   
    147. D(C  13,C  12,C  11,C  20)      0.0004         0.021614   
    148. D(C  13,C  12,C  11,C  10)    180.0000         0.021614   
    149. D(H  31,C  13,C  12,H  30)      0.0003         0.033677   
    150. D(H  31,C  13,C  12,C  11)    179.9999         0.033677   
    151. D(C  14,C  13,C  12,H  30)   -179.9998         0.033677   
    152. D(C  14,C  13,C  12,C  11)     -0.0002         0.033677   
    153. D(C  19,C  14,C  13,H  31)   -179.9998         0.021406   
    154. D(C  19,C  14,C  13,C  12)      0.0003         0.021406   
    155. D(C  15,C  14,C  13,H  31)     -0.0003         0.021406   
    156. D(C  15,C  14,C  13,C  12)    179.9999         0.021406   
    157. D(H  32,C  15,C  14,C  19)    179.9996         0.021451   
    158. D(H  32,C  15,C  14,C  13)      0.0000         0.021451   
    159. D(C  16,C  15,C  14,C  19)     -0.0005         0.021451   
    160. D(C  16,C  15,C  14,C  13)    179.9999         0.021451   
    161. D(H  33,C  16,C  15,H  32)     -0.0001         0.033652   
    162. D(C  17,C  16,C  15,H  32)    179.9999         0.033652   
    163. D(C  17,C  16,C  15,C  14)      0.0001         0.033652   
    164. D(H  33,C  16,C  15,C  14)   -179.9999         0.033652   
    165. D(C   0,C  17,C  16,H  33)      0.0000         0.021423   
    166. D(C   0,C  17,C  16,C  15)   -180.0000         0.021423   
    167. D(C  18,C  17,C   0,H  24)   -179.9996         0.021486   
    168. D(C  18,C  17,C   0,C   1)     -0.0000         0.021486   
    169. D(C  16,C  17,C   0,H  24)      0.0005         0.021486   
    170. D(C  18,C  17,C  16,C  15)      0.0002         0.021423   
    171. D(C  16,C  17,C   0,C   1)   -179.9999         0.021486   
    172. D(C  18,C  17,C  16,H  33)   -179.9998         0.021423   
    173. D(C  23,C  18,C  17,C  16)    179.9996         0.023669   
    174. D(C  23,C  18,C  17,C   0)     -0.0003         0.023669   
    175. D(C  19,C  18,C  17,C  16)      0.0001         0.023669   
    176. D(C  19,C  18,C  17,C   0)   -179.9998         0.023669   
    177. D(C  20,C  19,C  18,C  23)      0.0009         0.021119   
    178. D(C  20,C  19,C  18,C  17)   -179.9996         0.021119   
    179. D(C  14,C  19,C  18,C  23)    179.9999         0.021119   
    180. D(C  14,C  19,C  18,C  17)     -0.0006         0.021119   
    181. D(C  20,C  19,C  14,C  15)    179.9999         0.023554   
    182. D(C  20,C  19,C  14,C  13)     -0.0006         0.023554   
    183. D(C  18,C  19,C  14,C  15)      0.0008         0.023554   
    184. D(C  18,C  19,C  14,C  13)   -179.9996         0.023554   
    185. D(C  21,C  20,C  19,C  18)     -0.0010         0.021225   
    186. D(C  21,C  20,C  19,C  14)    180.0000         0.021225   
    187. D(C  11,C  20,C  19,C  18)    179.9998         0.021225   
    188. D(C  11,C  20,C  19,C  14)      0.0007         0.021225   
    189. D(C  21,C  20,C  11,C  12)   -179.9999         0.022654   
    190. D(C  21,C  20,C  11,C  10)      0.0005         0.022654   
    191. D(C  19,C  20,C  11,C  12)     -0.0006         0.022654   
    192. D(C  19,C  20,C  11,C  10)    179.9997         0.022654   
    193. D(C  22,C  21,C  20,C  19)      0.0008         0.020753   
    194. D(C  22,C  21,C  20,C  11)   -180.0000         0.020753   
    195. D(C   8,C  21,C  20,C  19)   -179.9997         0.020753   
    196. D(C   8,C  21,C  20,C  11)     -0.0004         0.020753   
    197. D(C  22,C  21,C   8,C   9)    179.9998         0.023289   
    198. D(C  22,C  21,C   8,C   7)     -0.0002         0.023289   
    199. D(C  20,C  21,C   8,C   9)      0.0003         0.023289   
    200. D(C  20,C  21,C   8,C   7)   -179.9997         0.023289   
    201. D(C  23,C  22,C  21,C  20)     -0.0004         0.021004   
    202. D(C  23,C  22,C  21,C   8)    180.0000         0.021004   
    203. D(C   5,C  22,C  21,C  20)    179.9998         0.021004   
    204. D(C   5,C  22,C  21,C   8)      0.0002         0.021004   
    205. D(C  23,C  22,C   5,C   6)   -179.9998         0.023557   
    206. D(C  23,C  22,C   5,C   4)     -0.0001         0.023557   
    207. D(C  21,C  22,C   5,C   6)     -0.0000         0.023557   
    208. D(C  21,C  22,C   5,C   4)    179.9997         0.023557   
    209. D(C  18,C  23,C  22,C  21)      0.0003         0.021017   
    210. D(C   2,C  23,C  22,C  21)   -179.9999         0.021017   
    211. D(C   2,C  23,C  22,C   5)     -0.0002         0.021017   
    212. D(C  22,C  23,C  18,C  19)     -0.0005         0.021140   
    213. D(C  22,C  23,C  18,C  17)    179.9999         0.021140   
    214. D(C   2,C  23,C  18,C  19)    179.9997         0.021140   
    215. D(C   2,C  23,C  18,C  17)      0.0002         0.021140   
    216. D(C  22,C  23,C   2,C   3)     -0.0001         0.023610   
    217. D(C  22,C  23,C   2,C   1)   -179.9996         0.023610   
    218. D(C  18,C  23,C  22,C   5)   -179.9999         0.021017   
    219. D(C  18,C  23,C   2,C   3)    179.9996         0.023610   
    220. D(C  18,C  23,C   2,C   1)      0.0001         0.023610   
    -----------------------------------------------------------------

Number of atoms                         .... 34
Number of degrees of freedom            .... 220

         *************************************************************
         *                GEOMETRY OPTIMIZATION CYCLE   1            *
         *************************************************************
---------------------------------
CARTESIAN COORDINATES (ANGSTROEM)
---------------------------------
  C      2.457920   -2.802689   -0.000008
  C      1.286088   -3.497069   -0.000036
  C      0.034705   -2.826501   -0.000119
  C     -1.199096   -3.529264   -0.000147
  C     -2.387275   -2.863878   -0.000230
  C     -2.433075   -1.444476   -0.000270
  C     -3.659424   -0.730567   -0.000349
  C     -3.681432    0.631837   -0.000388
  C     -2.476543    1.381711   -0.000357
  C     -2.474357    2.810465   -0.000398
  C     -1.285614    3.438021   -0.000362
  C     -0.020572    2.833882   -0.000290
  C      1.210867    3.538939   -0.000254
  C      2.394893    2.865518   -0.000184
  C      2.435171    1.445828   -0.000140
  C      3.659759    0.726972   -0.000070
  C      3.675460   -0.635164   -0.000027
  C      2.468118   -1.382952   -0.000052
  C      1.240615   -0.694962   -0.000127
  C      1.224742    0.726986   -0.000177
  C     -0.015665    1.421032   -0.000245
  C     -1.243563    0.699233   -0.000283
  C     -1.224003   -0.723387   -0.000237
  C      0.016935   -1.419131   -0.000163
  H      3.405017   -3.329066    0.000056
  H      1.292963   -4.580604    0.000001
  H     -1.178963   -4.612571   -0.000115
  H     -4.585868   -1.292669   -0.000371
  H     -4.624088    1.165755   -0.000446
  H     -3.415184    3.348782   -0.000457
  H      1.188546    4.621038   -0.000290
  H      3.331302    3.410526   -0.000158
  H      4.588005    1.285863   -0.000048
  H      4.616603   -1.172137    0.000028

----------------------------
CARTESIAN COORDINATES (A.U.)
----------------------------
  NO LB      ZA    FRAG     MASS         X           Y           Z
   0 C     6.0000    0    12.011    4.644795   -5.296315   -0.000015
   1 C     6.0000    0    12.011    2.430353   -6.608502   -0.000069
   2 C     6.0000    0    12.011    0.065584   -5.341313   -0.000225
   3 C     6.0000    0    12.011   -2.265963   -6.669343   -0.000279
   4 C     6.0000    0    12.011   -4.511297   -5.411945   -0.000434
   5 C     6.0000    0    12.011   -4.597846   -2.729664   -0.000511
   6 C     6.0000    0    12.011   -6.915308   -1.380571   -0.000659
   7 C     6.0000    0    12.011   -6.956898    1.193999   -0.000732
   8 C     6.0000    0    12.011   -4.679988    2.611055   -0.000675
   9 C     6.0000    0    12.011   -4.675856    5.311010   -0.000753
  10 C     6.0000    0    12.011   -2.429459    6.496919   -0.000683
  11 C     6.0000    0    12.011   -0.038876    5.355261   -0.000548
  12 C     6.0000    0    12.011    2.288207    6.687626   -0.000480
  13 C     6.0000    0    12.011    4.525692    5.415045   -0.000348
  14 C     6.0000    0    12.011    4.601806    2.732218   -0.000265
  15 C     6.0000    0    12.011    6.915942    1.373779   -0.000132
  16 C     6.0000    0    12.011    6.945614   -1.200287   -0.000051
  17 C     6.0000    0    12.011    4.664067   -2.613400   -0.000099
  18 C     6.0000    0    12.011    2.344423   -1.313288   -0.000240
  19 C     6.0000    0    12.011    2.314427    1.373805   -0.000335
  20 C     6.0000    0    12.011   -0.029603    2.685361   -0.000463
  21 C     6.0000    0    12.011   -2.349994    1.321360   -0.000536
  22 C     6.0000    0    12.011   -2.313030   -1.367003   -0.000449
  23 C     6.0000    0    12.011    0.032002   -2.681769   -0.000308
  24 H     1.0000    0     1.008    6.434550   -6.291023    0.000106
  25 H     1.0000    0     1.008    2.443346   -8.656088    0.000003
  26 H     1.0000    0     1.008   -2.227917   -8.716497   -0.000218
  27 H     1.0000    0     1.008   -8.666034   -2.442791   -0.000702
  28 H     1.0000    0     1.008   -8.738261    2.202958   -0.000842
  29 H     1.0000    0     1.008   -6.453763    6.328280   -0.000864
  30 H     1.0000    0     1.008    2.246027    8.732497   -0.000547
  31 H     1.0000    0     1.008    6.295249    6.444961   -0.000298
  32 H     1.0000    0     1.008    8.670073    2.429928   -0.000091
  33 H     1.0000    0     1.008    8.724115   -2.215018    0.000053

--------------------------------
INTERNAL COORDINATES (ANGSTROEM)
--------------------------------
 C      0   0   0     0.000000000000     0.00000000     0.00000000
 C      1   0   0     1.362113679096     0.00000000     0.00000000
 C      2   1   0     1.419724783837   121.16560922     0.00000000
 C      3   2   1     1.419909247897   122.14936829   180.00012514
 C      4   3   2     1.361803310114   121.08549338   180.00014219
 C      5   4   3     1.420141122251   121.09714964     0.00000000
 C      6   5   4     1.419012388076   122.05359964   180.00035250
 C      7   6   5     1.362581485232   121.13095823   180.00004575
 C      8   7   6     1.419178621480   120.97098694     0.00000000
 C      9   8   7     1.428756148094   121.98415257   179.99993018
 C     10   9   8     1.344222585462   117.91798224   179.99982824
 C     11  10   9     1.401897284280   126.64222024     0.00000000
 C     12  11  10     1.418995211879   124.67934702   179.99996824
 C     13  12  11     1.362135809022   120.57756794   179.99997748
 C     14  13  12     1.420261984758   121.25435076     0.00000000
 C     15  14  13     1.419988977707   122.03878309   179.99987718
 C     16  15  14     1.362227386094   121.07411591   179.99989307
 C      1   2   3     1.419774138430   121.06079764     0.00000000
 C     18   1   2     1.407157726568   118.85816447     0.00000000
 C     15  14  13     1.407789236399   119.07985977     0.00000000
 C     12  11  10     1.412859063314   115.72648181     0.00000000
 C      9   8   7     1.409260162609   119.13818147     0.00000000
 C      6   5   4     1.407773173691   118.96366889     0.00000000
 C      3   2   1     1.407482165417   118.90857994     0.00000000
 H      1   2   3     1.083543264277   120.28639352   179.99993510
 H      2   1   3     1.083557362447   120.28567582   179.99985180
 H      4   3   2     1.083494320220   118.60077089     0.00000000
 H      7   6   5     1.083631881832   118.54804936     0.00000000
 H      8   7   6     1.083360529949   120.45257468   180.00011038
 H     10   9   8     1.083947122969   119.68934415     0.00000000
 H     13  12  11     1.082329634012   118.61148842     0.00000000
 H     14  13  12     1.083464585813   120.17050164   179.99994437
 H     16  15  14     1.083512229910   118.53445959     0.00000000
 H     17  16  15     1.083553719621   120.36752368   180.00008314

---------------------------
INTERNAL COORDINATES (A.U.)
---------------------------
 C      0   0   0     0.000000000000     0.00000000     0.00000000
 C      1   0   0     2.574021816758     0.00000000     0.00000000
 C      2   1   0     2.682891026993   121.16560922     0.00000000
 C      3   2   1     2.683239613547   122.14936829   180.00012514
 C      4   3   2     2.573435304383   121.08549338   180.00014219
 C      5   4   3     2.683677792575   121.09714964     0.00000000
 C      6   5   4     2.681544794105   122.05359964   180.00035250
 C      7   6   5     2.574905842241   121.13095823   180.00004575
 C      8   7   6     2.681858929714   120.97098694     0.00000000
 C      9   8   7     2.699957832055   121.98415257   179.99993018
 C     10   9   8     2.540212549554   117.91798224   179.99982824
 C     11  10   9     2.649201935177   126.64222024     0.00000000
 C     12  11  10     2.681512335797   124.67934702   179.99996824
 C     13  12  11     2.574063636258   120.57756794   179.99997748
 C     14  13  12     2.683906189613   121.25435076     0.00000000
 C     15  14  13     2.683390281052   122.03878309   179.99987718
 C     16  15  14     2.574236691845   121.07411591   179.99989307
 C      1   2   3     2.682984293657   121.06079764     0.00000000
 C     18   1   2     2.659142730445   118.85816447     0.00000000
 C     15  14  13     2.660336111077   119.07985977     0.00000000
 C     12  11  10     2.669916695492   115.72648181     0.00000000
 C      9   8   7     2.663115758776   119.13818147     0.00000000
 C      6   5   4     2.660305756958   118.96366889     0.00000000
 C      3   2   1     2.659755831016   118.90857994     0.00000000
 H      1   2   3     2.047600023738   120.28639352   179.99993510
 H      2   1   3     2.047626665418   120.28567582   179.99985180
 H      4   3   2     2.047507532875   118.60077089     0.00000000
 H      7   6   5     2.047767486649   118.54804936     0.00000000
 H      8   7   6     2.047254705903   120.45257468   180.00011038
 H     10   9   8     2.048363206063   119.68934415     0.00000000
 H     13  12  11     2.045306594911   118.61148842     0.00000000
 H     14  13  12     2.047451342988   120.17050164   179.99994437
 H     16  15  14     2.047541377284   118.53445959     0.00000000
 H     17  16  15     2.047619781476   120.36752368   180.00008314

---------------------
BASIS SET INFORMATION
---------------------
There are 2 groups of distinct atoms

 Group   1 Type C   : 11s6p2d1f contracted to 5s3p2d1f pattern {62111/411/11/1}
 Group   2 Type H   : 5s1p contracted to 3s1p pattern {311/1}

Atom   0C    basis set group =>   1
Atom   1C    basis set group =>   1
Atom   2C    basis set group =>   1
Atom   3C    basis set group =>   1
Atom   4C    basis set group =>   1
Atom   5C    basis set group =>   1
Atom   6C    basis set group =>   1
Atom   7C    basis set group =>   1
Atom   8C    basis set group =>   1
Atom   9C    basis set group =>   1
Atom  10C    basis set group =>   1
Atom  11C    basis set group =>   1
Atom  12C    basis set group =>   1
Atom  13C    basis set group =>   1
Atom  14C    basis set group =>   1
Atom  15C    basis set group =>   1
Atom  16C    basis set group =>   1
Atom  17C    basis set group =>   1
Atom  18C    basis set group =>   1
Atom  19C    basis set group =>   1
Atom  20C    basis set group =>   1
Atom  21C    basis set group =>   1
Atom  22C    basis set group =>   1
Atom  23C    basis set group =>   1
Atom  24H    basis set group =>   2
Atom  25H    basis set group =>   2
Atom  26H    basis set group =>   2
Atom  27H    basis set group =>   2
Atom  28H    basis set group =>   2
Atom  29H    basis set group =>   2
Atom  30H    basis set group =>   2
Atom  31H    basis set group =>   2
Atom  32H    basis set group =>   2
Atom  33H    basis set group =>   2
---------------------------------
AUXILIARY/J BASIS SET INFORMATION
---------------------------------
There are 2 groups of distinct atoms

 Group   1 Type C   : 12s5p4d2f1g contracted to 6s4p3d1f1g pattern {711111/2111/211/2/1}
 Group   2 Type H   : 5s2p1d contracted to 3s1p1d pattern {311/2/1}

Atom   0C    basis set group =>   1
Atom   1C    basis set group =>   1
Atom   2C    basis set group =>   1
Atom   3C    basis set group =>   1
Atom   4C    basis set group =>   1
Atom   5C    basis set group =>   1
Atom   6C    basis set group =>   1
Atom   7C    basis set group =>   1
Atom   8C    basis set group =>   1
Atom   9C    basis set group =>   1
Atom  10C    basis set group =>   1
Atom  11C    basis set group =>   1
Atom  12C    basis set group =>   1
Atom  13C    basis set group =>   1
Atom  14C    basis set group =>   1
Atom  15C    basis set group =>   1
Atom  16C    basis set group =>   1
Atom  17C    basis set group =>   1
Atom  18C    basis set group =>   1
Atom  19C    basis set group =>   1
Atom  20C    basis set group =>   1
Atom  21C    basis set group =>   1
Atom  22C    basis set group =>   1
Atom  23C    basis set group =>   1
Atom  24H    basis set group =>   2
Atom  25H    basis set group =>   2
Atom  26H    basis set group =>   2
Atom  27H    basis set group =>   2
Atom  28H    basis set group =>   2
Atom  29H    basis set group =>   2
Atom  30H    basis set group =>   2
Atom  31H    basis set group =>   2
Atom  32H    basis set group =>   2
Atom  33H    basis set group =>   2


           ************************************************************
           *        Program running with 4 parallel MPI-processes     *
           *              working on a common directory               *
           ************************************************************
------------------------------------------------------------------------------
                           ORCA GTO INTEGRAL CALCULATION
                           -- RI-GTO INTEGRALS CHOSEN --
------------------------------------------------------------------------------
------------------------------------------------------------------------------
                   ___                                                        
                  /   \      - P O W E R E D   B Y -                         
                 /     \                                                     
                 |  |  |   _    _      __       _____    __    __             
                 |  |  |  | |  | |    /  \     |  _  \  |  |  /  |          
                  \  \/   | |  | |   /    \    | | | |  |  | /  /          
                 / \  \   | |__| |  /  /\  \   | |_| |  |  |/  /          
                |  |  |   |  __  | /  /__\  \  |    /   |      \           
                |  |  |   | |  | | |   __   |  |    \   |  |\   \          
                \     /   | |  | | |  |  |  |  | |\  \  |  | \   \       
                 \___/    |_|  |_| |__|  |__|  |_| \__\ |__|  \__/        
                                                                              
                      - O R C A' S   B I G   F R I E N D -                    
                                      &                                       
                       - I N T E G R A L  F E E D E R -                       
                                                                              
 v1 FN, 2020, v2 2021                                                         
------------------------------------------------------------------------------


Reading SHARK input file eight_four.SHARKINP.tmp ... ok
----------------------
SHARK INTEGRAL PACKAGE
----------------------

Number of atoms                             ...     34
Number of basis functions                   ...    804
Number of shells                            ...    304
Maximum angular momentum                    ...      3
Integral batch strategy                     ... SHARK/LIBINT Hybrid
RI-J (if used) integral strategy            ... SPLIT-RIJ (Revised 2003 algorithm where possible)
Printlevel                                  ...      1
Contraction scheme used                     ... SEGMENTED contraction
Coulomb Range Separation                    ... NOT USED
Exchange Range Separation                   ... NOT USED
Finite Nucleus Model                        ... NOT USED
Auxiliary Coulomb fitting basis             ... AVAILABLE
   # of basis functions in Aux-J            ...   1286
   # of shells in Aux-J                     ...    410
   Maximum angular momentum in Aux-J        ...      4
Auxiliary J/K fitting basis                 ... NOT available
Auxiliary Correlation fitting basis         ... NOT available
Auxiliary 'external' fitting basis          ... NOT available
Integral threshold                          ...     2.500000e-11
Primitive cut-off                           ...     2.500000e-12
Primitive pair pre-selection threshold      ...     2.500000e-12

Calculating pre-screening integrals         ... done (  0.1 sec) Dimension = 304
Organizing shell pair data                  ... done (  0.8 sec)
Shell pair information
Total number of shell pairs                 ...     46360
Shell pairs after pre-screening             ...     35737
Total number of primitive shell pairs       ...    146628
Primitive shell pairs kept                  ...     75590
          la=0 lb=0:   8083 shell pairs
          la=1 lb=0:   9818 shell pairs
          la=1 lb=1:   2940 shell pairs
          la=2 lb=0:   5413 shell pairs
          la=2 lb=1:   3293 shell pairs
          la=2 lb=2:    929 shell pairs
          la=3 lb=0:   2542 shell pairs
          la=3 lb=1:   1588 shell pairs
          la=3 lb=2:    894 shell pairs
          la=3 lb=3:    237 shell pairs

Calculating one electron integrals          ... done (  0.1 sec)
Calculating RI/J V-Matrix + Cholesky decomp.... done (  0.4 sec)
Calculating Nuclear repulsion               ... done (  0.0 sec) ENN=   1800.826797813387 Eh

SHARK setup successfully completed in   6.1 seconds

Maximum memory used throughout the entire GTOINT-calculation: 52.5 MB


           ************************************************************
           *        Program running with 4 parallel MPI-processes     *
           *              working on a common directory               *
           ************************************************************
-------------------------------------------------------------------------------
                                 ORCA SCF
-------------------------------------------------------------------------------

------------
SCF SETTINGS
------------
Hamiltonian:
 Density Functional     Method          .... DFT(GTOs)
 Exchange Functional    Exchange        .... M062X
 Correlation Functional Correlation     .... M062X
 Gradients option       PostSCFGGA      .... off
 Hybrid DFT is turned on
   Fraction HF Exchange ScalHFX         ....  0.540000
   Scaling of DF-GGA-X  ScalDFX         ....  0.460000
   Scaling of DF-GGA-C  ScalDFC         ....  1.000000
   Scaling of DF-LDA-C  ScalLDAC        ....  1.000000
   Perturbative correction              ....  0.000000
   Density functional embedding theory  .... OFF
 RI-approximation to the Coulomb term is turned on
   Number of AuxJ basis functions       .... 1286
   RIJ-COSX (HFX calculated with COS-X)).... on


General Settings:
 Integral files         IntName         .... eight_four
 Hartree-Fock type      HFTyp           .... RHF
 Total Charge           Charge          ....    0
 Multiplicity           Mult            ....    1
 Number of Electrons    NEL             ....  154
 Basis Dimension        Dim             ....  804
 Nuclear Repulsion      ENuc            ....   1800.8267978134 Eh

Convergence Acceleration:
 DIIS                   CNVDIIS         .... on
   Start iteration      DIISMaxIt       ....    12
   Startup error        DIISStart       ....  0.200000
   # of expansion vecs  DIISMaxEq       ....     5
   Bias factor          DIISBfac        ....   1.050
   Max. coefficient     DIISMaxC        ....  10.000
 Trust-Rad. Augm. Hess. CNVTRAH         .... auto
   Auto Start mean grad. ratio tolernc. ....  1.125000
   Auto Start start iteration           ....    20
   Auto Start num. interpolation iter.  ....    10
   Max. Number of Micro iterations      ....    16
   Max. Number of Macro iterations      .... Maxiter - #DIIS iter
   Number of Davidson start vectors     ....     2
   Converg. threshold I  (grad. norm)   ....   1.000e-05
   Converg. threshold II (energy diff.) ....   1.000e-08
   Grad. Scal. Fac. for Micro threshold ....   0.100
   Minimum threshold for Micro iter.    ....   0.010
   NR start threshold (gradient norm)   ....   0.001
   Initial trust radius                 ....   0.400
   Minimum AH scaling param. (alpha)    ....   1.000
   Maximum AH scaling param. (alpha)    .... 1000.000
   Orbital update algorithm             .... Taylor
   White noise on init. David. guess    .... on
   Maximum white noise                  ....   0.010
   Quad. conv. algorithm                .... NR
 SOSCF                  CNVSOSCF        .... on
   Start iteration      SOSCFMaxIt      ....   150
   Startup grad/error   SOSCFStart      ....  0.003300
 Level Shifting         CNVShift        .... on
   Level shift para.    LevelShift      ....    0.2500
   Turn off err/grad.   ShiftErr        ....    0.0010
 Zerner damping         CNVZerner       .... off
 Static damping         CNVDamp         .... on
   Fraction old density DampFac         ....    0.7000
   Max. Damping (<1)    DampMax         ....    0.9800
   Min. Damping (>=0)   DampMin         ....    0.0000
   Turn off err/grad.   DampErr         ....    0.1000
 Fernandez-Rico         CNVRico         .... off

SCF Procedure:
 Maximum # iterations   MaxIter         ....   125
 SCF integral mode      SCFMode         .... Direct
   Integral package                     .... SHARK and LIBINT hybrid scheme
 Reset frequency        DirectResetFreq ....    20
 Integral Threshold     Thresh          ....  2.500e-11 Eh
 Primitive CutOff       TCut            ....  2.500e-12 Eh

Convergence Tolerance:
 Convergence Check Mode ConvCheckMode   .... Total+1el-Energy
 Convergence forced     ConvForced      .... 0
 Energy Change          TolE            ....  1.000e-08 Eh
 1-El. energy change                    ....  1.000e-05 Eh
 Orbital Gradient       TolG            ....  1.000e-05
 Orbital Rotation angle TolX            ....  1.000e-05
 DIIS Error             TolErr          ....  5.000e-07


Diagonalization of the overlap matrix:
Smallest eigenvalue                        ... 6.252e-07
Time for diagonalization                   ...    0.172 sec
Threshold for overlap eigenvalues          ... 1.000e-08
Number of eigenvalues below threshold      ... 0
Time for construction of square roots      ...    0.084 sec
Total time needed                          ...    0.259 sec

Time for model grid setup =    2.896 sec

------------------------------
INITIAL GUESS: MODEL POTENTIAL
------------------------------
Loading Hartree-Fock densities                     ... done
Calculating cut-offs                               ... done
Initializing the effective Hamiltonian             ... done
Setting up the integral package (SHARK)            ... done
Starting the Coulomb interaction                   ... done (   1.5 sec)
Reading the grid                                   ... done
Mapping shells                                     ... done
Starting the XC term evaluation                    ... done (   2.7 sec)
  promolecular density results
     # of electrons  =    153.982629182
     EX              =   -125.796009510
     EC              =     -5.219335882
     EX+EC           =   -131.015345392
Transforming the Hamiltonian                       ... done (   0.1 sec)
Diagonalizing the Hamiltonian                      ... done (   0.1 sec)
Back transforming the eigenvectors                 ... done (   0.0 sec)
Now organizing SCF variables                       ... done
                      ------------------
                      INITIAL GUESS DONE (   7.3 sec)
                      ------------------
-------------------
DFT GRID GENERATION
-------------------

General Integration Accuracy     IntAcc      ... 4.388
Radial Grid Type                 RadialGrid  ... OptM3 with GC (2021)
Angular Grid (max. ang.)         AngularGrid ... 4 (Lebedev-302)
Angular grid pruning method      GridPruning ... 4 (adaptive)
Weight generation scheme         WeightScheme... Becke
Basis function cutoff            BFCut       ... 1.0000e-11
Integration weight cutoff        WCut        ... 1.0000e-14
Angular grids for H and He will be reduced by one unit
Partially contracted basis set               ... off
Rotationally invariant grid construction     ... off

Total number of grid points                  ...   174243
Total number of batches                      ...     2736
Average number of points per batch           ...       63
Average number of grid points per atom       ...     5125
Time for grid setup =    1.731 sec

--------------------
COSX GRID GENERATION
--------------------

GRIDX 1
-------
General Integration Accuracy     IntAcc      ... 3.816
Radial Grid Type                 RadialGrid  ... OptM3 with GC (2021)
Angular Grid (max. ang.)         AngularGrid ... 1 (Lebedev-50)
Angular grid pruning method      GridPruning ... 4 (adaptive)
Weight generation scheme         WeightScheme... Becke
Basis function cutoff            BFCut       ... 1.0000e-11
Integration weight cutoff        WCut        ... 1.0000e-14
Angular grids for H and He will be reduced by one unit
Partially contracted basis set               ... on
Rotationally invariant grid construction     ... off

Total number of grid points                  ...    22169
Total number of batches                      ...      360
Average number of points per batch           ...       61
Average number of grid points per atom       ...      652
UseSFitting                                  ... on

GRIDX 2
-------
General Integration Accuracy     IntAcc      ... 4.020
Radial Grid Type                 RadialGrid  ... OptM3 with GC (2021)
Angular Grid (max. ang.)         AngularGrid ... 2 (Lebedev-110)
Angular grid pruning method      GridPruning ... 4 (adaptive)
Weight generation scheme         WeightScheme... Becke
Basis function cutoff            BFCut       ... 1.0000e-11
Integration weight cutoff        WCut        ... 1.0000e-14
Angular grids for H and He will be reduced by one unit
Partially contracted basis set               ... on
Rotationally invariant grid construction     ... off

Total number of grid points                  ...    49051
Total number of batches                      ...      784
Average number of points per batch           ...       62
Average number of grid points per atom       ...     1443
UseSFitting                                  ... on

GRIDX 3
-------
General Integration Accuracy     IntAcc      ... 4.338
Radial Grid Type                 RadialGrid  ... OptM3 with GC (2021)
Angular Grid (max. ang.)         AngularGrid ... 3 (Lebedev-194)
Angular grid pruning method      GridPruning ... 4 (adaptive)
Weight generation scheme         WeightScheme... Becke
Basis function cutoff            BFCut       ... 1.0000e-11
Integration weight cutoff        WCut        ... 1.0000e-14
Angular grids for H and He will be reduced by one unit
Partially contracted basis set               ... on
Rotationally invariant grid construction     ... off

Total number of grid points                  ...   107966
Total number of batches                      ...     1705
Average number of points per batch           ...       63
Average number of grid points per atom       ...     3175
UseSFitting                                  ... on

Time for X-Grid setup             =    3.925 sec

--------------
SCF ITERATIONS
--------------
ITER       Energy         Delta-E        Max-DP      RMS-DP      [F,P]     Damp
               ***  Starting incremental Fock matrix formation  ***
  0   -919.6742697126   0.000000000000 0.13868630  0.00200147  0.1880125 0.7000
  1   -920.0312102485  -0.356940535940 0.13913230  0.00162803  0.0857603 0.7000
                               ***Turning on DIIS***
  2   -920.0662871458  -0.035076897256 0.09659974  0.00125839  0.1181211 0.7000
  3   -920.1812287946  -0.114941648887 0.21315269  0.00311771  0.0459770 0.0000
  4   -920.3394901417  -0.158261347027 0.08051634  0.00071435  0.0856797 0.0000
  5   -920.3645037039  -0.025013562259 0.03124915  0.00037396  0.0137646 0.0000
  6   -920.3663226339  -0.001818929945 0.02543222  0.00027954  0.0046595 0.0000
  7   -920.3667173760  -0.000394742114 0.01576687  0.00016231  0.0054083 0.0000
  8   -920.3669670083  -0.000249632339 0.00958535  0.00011716  0.0038173 0.0000
                      *** Initiating the SOSCF procedure ***
                           *** Shutting down DIIS ***
                      *** Re-Reading the Fockian *** 
                      *** Removing any level shift *** 
ITER      Energy       Delta-E        Grad      Rot      Max-DP    RMS-DP
  9   -920.36715145  -0.0001844390  0.001419  0.001419  0.006571  0.000089
               *** Restarting incremental Fock matrix formation ***
 10   -920.36682782   0.0003236265  0.001148  0.022959  0.191332  0.002039
 11   -920.36651873   0.0003090897  0.009776  0.009929  0.298832  0.002504
 12   -920.36688812  -0.0003693865  0.000560  0.002875  0.308734  0.002590
 13   -920.36686862   0.0000194963  0.000665  0.002172  0.021112  0.000207
 14   -920.36691194  -0.0000433193  0.000061  0.001141  0.013223  0.000131
 15   -920.36691239  -0.0000004537  0.000042  0.000363  0.006776  0.000064
 16   -920.36691274  -0.0000003439  0.000019  0.000102  0.008459  0.000082
 17   -920.36691279  -0.0000000543  0.000012  0.000021  0.001419  0.000014
 18   -920.36691279   0.0000000057  0.000005  0.000022  0.002116  0.000020
 19   -920.36691276   0.0000000275  0.000004  0.000010  0.000689  0.000007
                  ***Gradient check signals convergence***
              ***Rediagonalizing the Fockian in SOSCF/NRSCF***

               *****************************************************
               *                     SUCCESS                       *
               *           SCF CONVERGED AFTER  20 CYCLES          *
               *****************************************************

Old exchange energy                            =    -69.112237733 Eh
New exchange energy                            =    -69.112065715 Eh
Exchange energy change after final integration =      0.000172018 Eh
Total energy after final integration           =   -920.366740738 Eh
Final COS-X integration done in                =    87.193 sec

----------------
TOTAL SCF ENERGY
----------------

Total Energy       :         -920.36674074 Eh          -25044.45225 eV

Components:
Nuclear Repulsion  :         1800.82679781 Eh           49002.98843 eV
Electronic Energy  :        -2721.19353855 Eh          -74047.44068 eV
One Electron Energy:        -4819.59491758 Eh         -131147.84513 eV
Two Electron Energy:         2098.40137902 Eh           57100.40445 eV
Max COSX asymmetry :            0.00000603 Eh               0.00016 eV

Virial components:
Potential Energy   :        -1836.18640884 Eh          -49965.17236 eV
Kinetic Energy     :          915.81966810 Eh           24920.72011 eV
Virial Ratio       :            2.00496503


DFT components:
N(Alpha)           :       77.000154840097 electrons
N(Beta)            :       77.000154840097 electrons
N(Total)           :      154.000309680194 electrons
E(XC)              :      -64.620692663669 Eh       
DFET-embed. en.    :        0.000000000000 Eh       

---------------
SCF CONVERGENCE
---------------

  Last Energy change         ...    2.9416e-09  Tolerance :   1.0000e-08
  Last MAX-Density change    ...    2.8866e-15  Tolerance :   1.0000e-07
  Last RMS-Density change    ...    1.2240e-17  Tolerance :   5.0000e-09
  Last Orbital Gradient      ...    9.4323e-07  Tolerance :   1.0000e-05
  Last Orbital Rotation      ...    3.8554e-06  Tolerance :   1.0000e-05

             **** THE GBW FILE WAS UPDATED (eight_four.gbw) ****
             **** DENSITY eight_four.scfp WAS UPDATED ****
             **** ENERGY FILE WAS UPDATED (eight_four.en.tmp) ****
             **** THE GBW FILE WAS UPDATED (eight_four.gbw) ****
             **** DENSITY eight_four.scfp WAS UPDATED ****
----------------
ORBITAL ENERGIES
----------------

  NO   OCC          E(Eh)            E(eV) 
   0   2.0000     -10.591992      -288.2228 
   1   2.0000     -10.580066      -287.8982 
   2   2.0000     -10.578674      -287.8604 
   3   2.0000     -10.575383      -287.7708 
   4   2.0000     -10.570188      -287.6294 
   5   2.0000     -10.569546      -287.6120 
   6   2.0000     -10.568563      -287.5852 
   7   2.0000     -10.568462      -287.5825 
   8   2.0000     -10.566538      -287.5301 
   9   2.0000     -10.566108      -287.5184 
  10   2.0000     -10.565344      -287.4976 
  11   2.0000     -10.565107      -287.4912 
  12   2.0000     -10.564574      -287.4767 
  13   2.0000     -10.562048      -287.4079 
  14   2.0000     -10.561673      -287.3977 
  15   2.0000     -10.560909      -287.3769 
  16   2.0000     -10.558057      -287.2993 
  17   2.0000     -10.555766      -287.2370 
  18   2.0000     -10.555225      -287.2223 
  19   2.0000     -10.554405      -287.1999 
  20   2.0000     -10.553943      -287.1874 
  21   2.0000     -10.553052      -287.1631 
  22   2.0000     -10.552850      -287.1576 
  23   2.0000     -10.550215      -287.0860 
  24   2.0000      -1.031481       -28.0680 
  25   2.0000      -0.992023       -26.9943 
  26   2.0000      -0.989310       -26.9205 
  27   2.0000      -0.938823       -25.5467 
  28   2.0000      -0.938006       -25.5244 
  29   2.0000      -0.918802       -25.0019 
  30   2.0000      -0.884827       -24.0774 
  31   2.0000      -0.869780       -23.6679 
  32   2.0000      -0.851800       -23.1787 
  33   2.0000      -0.849608       -23.1190 
  34   2.0000      -0.817033       -22.2326 
  35   2.0000      -0.811217       -22.0743 
  36   2.0000      -0.734054       -19.9746 
  37   2.0000      -0.732391       -19.9294 
  38   2.0000      -0.730167       -19.8689 
  39   2.0000      -0.715288       -19.4640 
  40   2.0000      -0.714136       -19.4326 
  41   2.0000      -0.651575       -17.7303 
  42   2.0000      -0.641350       -17.4520 
  43   2.0000      -0.626004       -17.0344 
  44   2.0000      -0.615135       -16.7387 
  45   2.0000      -0.608845       -16.5675 
  46   2.0000      -0.599040       -16.3007 
  47   2.0000      -0.554603       -15.0915 
  48   2.0000      -0.551612       -15.0101 
  49   2.0000      -0.541451       -14.7336 
  50   2.0000      -0.536847       -14.6084 
  51   2.0000      -0.530013       -14.4224 
  52   2.0000      -0.520088       -14.1523 
  53   2.0000      -0.513566       -13.9749 
  54   2.0000      -0.504176       -13.7193 
  55   2.0000      -0.498267       -13.5585 
  56   2.0000      -0.485148       -13.2015 
  57   2.0000      -0.480340       -13.0707 
  58   2.0000      -0.473577       -12.8867 
  59   2.0000      -0.473247       -12.8777 
  60   2.0000      -0.470232       -12.7957 
  61   2.0000      -0.453028       -12.3275 
  62   2.0000      -0.446383       -12.1467 
  63   2.0000      -0.435408       -11.8481 
  64   2.0000      -0.427865       -11.6428 
  65   2.0000      -0.410336       -11.1658 
  66   2.0000      -0.408568       -11.1177 
  67   2.0000      -0.395967       -10.7748 
  68   2.0000      -0.390397       -10.6233 
  69   2.0000      -0.387921       -10.5559 
  70   2.0000      -0.339937        -9.2502 
  71   2.0000      -0.334293        -9.0966 
  72   2.0000      -0.318365        -8.6632 
  73   2.0000      -0.316682        -8.6174 
  74   2.0000      -0.261038        -7.1032 
  75   2.0000      -0.257723        -7.0130 
  76   2.0000      -0.213144        -5.7999 
  77   0.0000      -0.165841        -4.5128 
  78   0.0000      -0.045113        -1.2276 
  79   0.0000      -0.042145        -1.1468 
  80   0.0000      -0.002805        -0.0763 
  81   0.0000       0.000335         0.0091 
  82   0.0000       0.016856         0.4587 
  83   0.0000       0.049296         1.3414 
  84   0.0000       0.077922         2.1204 
  85   0.0000       0.081960         2.2302 
  86   0.0000       0.086098         2.3428 
  87   0.0000       0.088461         2.4072 
  88   0.0000       0.099904         2.7185 
  89   0.0000       0.108750         2.9592 
  90   0.0000       0.114614         3.1188 
  91   0.0000       0.114636         3.1194 
  92   0.0000       0.117112         3.1868 
  93   0.0000       0.120225         3.2715 
  94   0.0000       0.127321         3.4646 
  95   0.0000       0.135009         3.6738 
  96   0.0000       0.137389         3.7385 
  97   0.0000       0.144499         3.9320 
  98   0.0000       0.146156         3.9771 
  99   0.0000       0.168106         4.5744 
 100   0.0000       0.176380         4.7995 
 101   0.0000       0.178384         4.8541 
 102   0.0000       0.187873         5.1123 
 103   0.0000       0.189247         5.1497 
 104   0.0000       0.193702         5.2709 
 105   0.0000       0.200526         5.4566 
 106   0.0000       0.203593         5.5400 
 107   0.0000       0.209662         5.7052 
 108   0.0000       0.216382         5.8880 
 109   0.0000       0.225552         6.1376 
 110   0.0000       0.231172         6.2905 
 111   0.0000       0.234303         6.3757 
 112   0.0000       0.234846         6.3905 
 113   0.0000       0.243223         6.6184 
 114   0.0000       0.250791         6.8244 
 115   0.0000       0.261052         7.1036 
 116   0.0000       0.261847         7.1252 
 117   0.0000       0.265043         7.2122 
 118   0.0000       0.268374         7.3028 
 119   0.0000       0.269597         7.3361 
 120   0.0000       0.280604         7.6356 
 121   0.0000       0.281748         7.6668 
 122   0.0000       0.282192         7.6788 
 123   0.0000       0.286642         7.7999 
 124   0.0000       0.291884         7.9426 
 125   0.0000       0.294418         8.0115 
 126   0.0000       0.295898         8.0518 
 127   0.0000       0.302651         8.2356 
 128   0.0000       0.304588         8.2883 
 129   0.0000       0.309311         8.4168 
 130   0.0000       0.316033         8.5997 
 131   0.0000       0.317248         8.6327 
 132   0.0000       0.318761         8.6739 
 133   0.0000       0.319652         8.6982 
 134   0.0000       0.322506         8.7758 
 135   0.0000       0.329780         8.9738 
 136   0.0000       0.339977         9.2513 
 137   0.0000       0.348752         9.4900 
 138   0.0000       0.352658         9.5963 
 139   0.0000       0.353764         9.6264 
 140   0.0000       0.355767         9.6809 
 141   0.0000       0.357395         9.7252 
 142   0.0000       0.358644         9.7592 
 143   0.0000       0.370590        10.0843 
 144   0.0000       0.375867        10.2279 
 145   0.0000       0.380127        10.3438 
 146   0.0000       0.381887        10.3917 
 147   0.0000       0.381904        10.3921 
 148   0.0000       0.384321        10.4579 
 149   0.0000       0.385590        10.4924 
 150   0.0000       0.388603        10.5744 
 151   0.0000       0.390080        10.6146 
 152   0.0000       0.403225        10.9723 
 153   0.0000       0.407374        11.0852 
 154   0.0000       0.410584        11.1726 
 155   0.0000       0.413500        11.2519 
 156   0.0000       0.420099        11.4315 
 157   0.0000       0.421821        11.4783 
 158   0.0000       0.426395        11.6028 
 159   0.0000       0.435029        11.8377 
 160   0.0000       0.437401        11.9023 
 161   0.0000       0.443966        12.0809 
 162   0.0000       0.451125        12.2757 
 163   0.0000       0.456724        12.4281 
 164   0.0000       0.458272        12.4702 
 165   0.0000       0.460349        12.5267 
 166   0.0000       0.465251        12.6601 
 167   0.0000       0.469859        12.7855 
 168   0.0000       0.475065        12.9272 
 169   0.0000       0.476386        12.9631 
 170   0.0000       0.478665        13.0251 
 171   0.0000       0.496372        13.5070 
 172   0.0000       0.505584        13.7576 
 173   0.0000       0.508282        13.8311 
 174   0.0000       0.512304        13.9405 
 175   0.0000       0.512425        13.9438 
 176   0.0000       0.514454        13.9990 
 177   0.0000       0.520668        14.1681 
 178   0.0000       0.526263        14.3203 
 179   0.0000       0.531624        14.4662 
 180   0.0000       0.542697        14.7675 
 181   0.0000       0.544583        14.8189 
 182   0.0000       0.547238        14.8911 
 183   0.0000       0.548470        14.9246 
 184   0.0000       0.551187        14.9986 
 185   0.0000       0.553843        15.0708 
 186   0.0000       0.567827        15.4514 
 187   0.0000       0.573799        15.6139 
 188   0.0000       0.579144        15.7593 
 189   0.0000       0.581407        15.8209 
 190   0.0000       0.586642        15.9633 
 191   0.0000       0.603046        16.4097 
 192   0.0000       0.615395        16.7458 
 193   0.0000       0.630878        17.1671 
 194   0.0000       0.632128        17.2011 
 195   0.0000       0.633024        17.2255 
 196   0.0000       0.634932        17.2774 
 197   0.0000       0.638150        17.3649 
 198   0.0000       0.639570        17.4036 
 199   0.0000       0.646756        17.5991 
 200   0.0000       0.650605        17.7039 
 201   0.0000       0.655294        17.8314 
 202   0.0000       0.659519        17.9464 
 203   0.0000       0.664462        18.0809 
 204   0.0000       0.666355        18.1324 
 205   0.0000       0.668955        18.2032 
 206   0.0000       0.675701        18.3868 
 207   0.0000       0.682082        18.5604 
 208   0.0000       0.686162        18.6714 
 209   0.0000       0.690979        18.8025 
 210   0.0000       0.694241        18.8913 
 211   0.0000       0.697854        18.9896 
 212   0.0000       0.705829        19.2066 
 213   0.0000       0.723877        19.6977 
 214   0.0000       0.724620        19.7179 
 215   0.0000       0.726329        19.7644 
 216   0.0000       0.736473        20.0405 
 217   0.0000       0.748331        20.3631 
 218   0.0000       0.752304        20.4712 
 219   0.0000       0.763158        20.7666 
 220   0.0000       0.764092        20.7920 
 221   0.0000       0.764169        20.7941 
 222   0.0000       0.767318        20.8798 
 223   0.0000       0.773406        21.0455 
 224   0.0000       0.780393        21.2356 
 225   0.0000       0.783701        21.3256 
 226   0.0000       0.784669        21.3519 
 227   0.0000       0.785657        21.3788 
 228   0.0000       0.791342        21.5335 
 229   0.0000       0.792724        21.5711 
 230   0.0000       0.796691        21.6791 
 231   0.0000       0.803823        21.8731 
 232   0.0000       0.807155        21.9638 
 233   0.0000       0.821449        22.3528 
 234   0.0000       0.823963        22.4212 
 235   0.0000       0.831249        22.6194 
 236   0.0000       0.835323        22.7303 
 237   0.0000       0.839048        22.8317 
 238   0.0000       0.843836        22.9619 
 239   0.0000       0.851177        23.1617 
 240   0.0000       0.859825        23.3970 
 241   0.0000       0.862893        23.4805 
 242   0.0000       0.863823        23.5058 
 243   0.0000       0.872548        23.7432 
 244   0.0000       0.872866        23.7519 
 245   0.0000       0.888257        24.1707 
 246   0.0000       0.890866        24.2417 
 247   0.0000       0.895580        24.3700 
 248   0.0000       0.896850        24.4045 
 249   0.0000       0.897197        24.4140 
 250   0.0000       0.906157        24.6578 
 251   0.0000       0.910510        24.7762 
 252   0.0000       0.918691        24.9988 
 253   0.0000       0.920054        25.0360 
 254   0.0000       0.925409        25.1817 
 255   0.0000       0.936918        25.4948 
 256   0.0000       0.949420        25.8350 
 257   0.0000       0.951442        25.8900 
 258   0.0000       0.956905        26.0387 
 259   0.0000       0.974716        26.5234 
 260   0.0000       0.980753        26.6876 
 261   0.0000       0.995566        27.0907 
 262   0.0000       0.995779        27.0965 
 263   0.0000       1.018310        27.7096 
 264   0.0000       1.018926        27.7264 
 265   0.0000       1.020720        27.7752 
 266   0.0000       1.023035        27.8382 
 267   0.0000       1.050874        28.5957 
 268   0.0000       1.052512        28.6403 
 269   0.0000       1.054485        28.6940 
 270   0.0000       1.068700        29.0808 
 271   0.0000       1.074157        29.2293 
 272   0.0000       1.077139        29.3104 
 273   0.0000       1.088767        29.6269 
 274   0.0000       1.093837        29.7648 
 275   0.0000       1.096023        29.8243 
 276   0.0000       1.108439        30.1622 
 277   0.0000       1.115685        30.3593 
 278   0.0000       1.123882        30.5824 
 279   0.0000       1.127607        30.6837 
 280   0.0000       1.134321        30.8664 
 281   0.0000       1.136964        30.9384 
 282   0.0000       1.194336        32.4995 
 283   0.0000       1.195668        32.5358 
 284   0.0000       1.200670        32.6719 
 285   0.0000       1.204525        32.7768 
 286   0.0000       1.214321        33.0434 
 287   0.0000       1.223002        33.2796 
 288   0.0000       1.226390        33.3718 
 289   0.0000       1.232903        33.5490 
 290   0.0000       1.240973        33.7686 
 291   0.0000       1.242969        33.8229 
 292   0.0000       1.246836        33.9281 
 293   0.0000       1.250279        34.0218 
 294   0.0000       1.254224        34.1292 
 295   0.0000       1.270186        34.5635 
 296   0.0000       1.277708        34.7682 
 297   0.0000       1.278052        34.7776 
 298   0.0000       1.281782        34.8791 
 299   0.0000       1.288342        35.0576 
 300   0.0000       1.293198        35.1897 
 301   0.0000       1.298436        35.3322 
 302   0.0000       1.299822        35.3700 
 303   0.0000       1.307663        35.5833 
 304   0.0000       1.318840        35.8875 
 305   0.0000       1.324494        36.0413 
 306   0.0000       1.328473        36.1496 
 307   0.0000       1.345156        36.6036 
 308   0.0000       1.361353        37.0443 
 309   0.0000       1.363511        37.1030 
 310   0.0000       1.368511        37.2391 
 311   0.0000       1.369058        37.2540 
 312   0.0000       1.371009        37.3070 
 313   0.0000       1.374314        37.3970 
 314   0.0000       1.388672        37.7877 
 315   0.0000       1.394802        37.9545 
 316   0.0000       1.397049        38.0156 
 317   0.0000       1.406251        38.2660 
 318   0.0000       1.414213        38.4827 
 319   0.0000       1.414300        38.4851 
 320   0.0000       1.415230        38.5104 
 321   0.0000       1.422334        38.7037 
 322   0.0000       1.431460        38.9520 
 323   0.0000       1.452734        39.5309 
 324   0.0000       1.464436        39.8493 
 325   0.0000       1.470945        40.0265 
 326   0.0000       1.490133        40.5486 
 327   0.0000       1.490787        40.5664 
 328   0.0000       1.490877        40.5688 
 329   0.0000       1.493810        40.6486 
 330   0.0000       1.503852        40.9219 
 331   0.0000       1.513669        41.1890 
 332   0.0000       1.518798        41.3286 
 333   0.0000       1.522381        41.4261 
 334   0.0000       1.538859        41.8745 
 335   0.0000       1.538983        41.8779 
 336   0.0000       1.544808        42.0364 
 337   0.0000       1.546214        42.0746 
 338   0.0000       1.556797        42.3626 
 339   0.0000       1.564316        42.5672 
 340   0.0000       1.567850        42.6634 
 341   0.0000       1.572702        42.7954 
 342   0.0000       1.575681        42.8765 
 343   0.0000       1.586985        43.1841 
 344   0.0000       1.590983        43.2928 
 345   0.0000       1.605141        43.6781 
 346   0.0000       1.621889        44.1338 
 347   0.0000       1.623535        44.1786 
 348   0.0000       1.629076        44.3294 
 349   0.0000       1.636828        44.5404 
 350   0.0000       1.642651        44.6988 
 351   0.0000       1.647663        44.8352 
 352   0.0000       1.649685        44.8902 
 353   0.0000       1.651934        44.9514 
 354   0.0000       1.657679        45.1077 
 355   0.0000       1.657799        45.1110 
 356   0.0000       1.660094        45.1734 
 357   0.0000       1.663396        45.2633 
 358   0.0000       1.703603        46.3574 
 359   0.0000       1.715550        46.6825 
 360   0.0000       1.716853        46.7179 
 361   0.0000       1.722624        46.8750 
 362   0.0000       1.725843        46.9626 
 363   0.0000       1.727188        46.9992 
 364   0.0000       1.733693        47.1762 
 365   0.0000       1.736380        47.2493 
 366   0.0000       1.743717        47.4489 
 367   0.0000       1.748337        47.5747 
 368   0.0000       1.748383        47.5759 
 369   0.0000       1.757188        47.8155 
 370   0.0000       1.764673        48.0192 
 371   0.0000       1.768154        48.1139 
 372   0.0000       1.771855        48.2146 
 373   0.0000       1.777965        48.3809 
 374   0.0000       1.783648        48.5355 
 375   0.0000       1.792115        48.7659 
 376   0.0000       1.816225        49.4220 
 377   0.0000       1.827397        49.7260 
 378   0.0000       1.830866        49.8204 
 379   0.0000       1.856635        50.5216 
 380   0.0000       1.867084        50.8059 
 381   0.0000       1.886128        51.3241 
 382   0.0000       1.888095        51.3777 
 383   0.0000       1.903013        51.7836 
 384   0.0000       1.909424        51.9581 
 385   0.0000       1.918755        52.2120 
 386   0.0000       1.925950        52.4078 
 387   0.0000       1.937683        52.7270 
 388   0.0000       1.951811        53.1115 
 389   0.0000       1.957672        53.2710 
 390   0.0000       1.964585        53.4591 
[...]


--------------------------
THERMOCHEMISTRY AT 8000.00K
--------------------------

Temperature         ... 8000.00 K
Pressure            ... 1.00 atm
Total Mass          ... 298.34 AMU

Throughout the following assumptions are being made:
  (1) The electronic state is orbitally nondegenerate
  (2) There are no thermally accessible electronically excited states
  (3) Hindered rotations indicated by low frequency modes are not
      treated as such but are treated as vibrations and this may
      cause some error
  (4) All equations used are the standard statistical mechanics
      equations for an ideal gas
  (5) All vibrations are strictly harmonic

freq.      87.62  E(vib)   ...      15.77 
freq.      93.83  E(vib)   ...      15.76 
freq.     132.17  E(vib)   ...      15.71 
freq.     197.32  E(vib)   ...      15.62 
freq.     245.66  E(vib)   ...      15.55 
freq.     292.78  E(vib)   ...      15.48 
freq.     296.67  E(vib)   ...      15.48 
freq.     305.57  E(vib)   ...      15.47 
freq.     367.38  E(vib)   ...      15.38 
freq.     369.67  E(vib)   ...      15.38 
freq.     384.69  E(vib)   ...      15.35 
freq.     387.45  E(vib)   ...      15.35 
freq.     425.67  E(vib)   ...      15.30 
freq.     438.72  E(vib)   ...      15.28 
freq.     463.54  E(vib)   ...      15.24 
freq.     473.37  E(vib)   ...      15.23 
freq.     493.46  E(vib)   ...      15.20 
freq.     495.42  E(vib)   ...      15.20 
freq.     504.22  E(vib)   ...      15.19 
freq.     520.41  E(vib)   ...      15.17 
freq.     560.30  E(vib)   ...      15.11 
freq.     570.47  E(vib)   ...      15.10 
freq.     585.13  E(vib)   ...      15.08 
freq.     600.66  E(vib)   ...      15.05 
freq.     639.92  E(vib)   ...      15.00 
freq.     658.58  E(vib)   ...      14.98 
freq.     660.86  E(vib)   ...      14.97 
freq.     680.96  E(vib)   ...      14.94 
freq.     688.77  E(vib)   ...      14.93 
freq.     730.99  E(vib)   ...      14.88 
freq.     773.37  E(vib)   ...      14.82 
freq.     776.03  E(vib)   ...      14.81 
freq.     782.17  E(vib)   ...      14.81 
freq.     795.09  E(vib)   ...      14.79 
freq.     826.51  E(vib)   ...      14.75 
freq.     830.85  E(vib)   ...      14.74 
freq.     834.76  E(vib)   ...      14.73 
freq.     843.85  E(vib)   ...      14.72 
freq.     871.28  E(vib)   ...      14.68 
freq.     877.15  E(vib)   ...      14.68 
freq.     884.57  E(vib)   ...      14.67 
freq.     924.21  E(vib)   ...      14.61 
freq.     945.45  E(vib)   ...      14.58 
freq.     979.22  E(vib)   ...      14.54 
freq.     983.10  E(vib)   ...      14.53 
freq.     992.10  E(vib)   ...      14.52 
freq.     992.57  E(vib)   ...      14.52 
freq.    1000.73  E(vib)   ...      14.51 
freq.    1011.73  E(vib)   ...      14.50 
freq.    1052.44  E(vib)   ...      14.44 
freq.    1128.46  E(vib)   ...      14.34 
freq.    1139.04  E(vib)   ...      14.33 
freq.    1163.70  E(vib)   ...      14.29 
freq.    1174.83  E(vib)   ...      14.28 
freq.    1191.50  E(vib)   ...      14.26 
freq.    1195.69  E(vib)   ...      14.25 
freq.    1210.65  E(vib)   ...      14.23 
freq.    1235.77  E(vib)   ...      14.20 
freq.    1238.09  E(vib)   ...      14.19 
freq.    1248.12  E(vib)   ...      14.18 
freq.    1253.01  E(vib)   ...      14.17 
freq.    1282.64  E(vib)   ...      14.13 
freq.    1302.07  E(vib)   ...      14.11 
freq.    1328.16  E(vib)   ...      14.07 
freq.    1365.56  E(vib)   ...      14.03 
freq.    1376.24  E(vib)   ...      14.01 
freq.    1387.33  E(vib)   ...      14.00 
freq.    1404.28  E(vib)   ...      13.97 
freq.    1424.31  E(vib)   ...      13.95 
freq.    1441.07  E(vib)   ...      13.93 
freq.    1445.74  E(vib)   ...      13.92 
freq.    1469.52  E(vib)   ...      13.89 
freq.    1479.10  E(vib)   ...      13.88 
freq.    1484.95  E(vib)   ...      13.87 
freq.    1530.11  E(vib)   ...      13.81 
freq.    1534.19  E(vib)   ...      13.81 
freq.    1541.11  E(vib)   ...      13.80 
freq.    1570.12  E(vib)   ...      13.76 
freq.    1599.75  E(vib)   ...      13.72 
freq.    1638.18  E(vib)   ...      13.67 
freq.    1672.35  E(vib)   ...      13.63 
freq.    1677.37  E(vib)   ...      13.62 
freq.    1685.87  E(vib)   ...      13.61 
freq.    1694.23  E(vib)   ...      13.60 
freq.    3164.30  E(vib)   ...      11.80 
freq.    3179.07  E(vib)   ...      11.78 
freq.    3203.51  E(vib)   ...      11.76 
freq.    3205.05  E(vib)   ...      11.75 
freq.    3211.13  E(vib)   ...      11.75 
freq.    3212.65  E(vib)   ...      11.75 
freq.    3221.11  E(vib)   ...      11.74 
freq.    3222.04  E(vib)   ...      11.73 
freq.    3237.85  E(vib)   ...      11.72 
freq.    3247.25  E(vib)   ...      11.71 

------------
INNER ENERGY
------------

The inner energy is: U= E(el) + E(ZPE) + E(vib) + E(rot) + E(trans)
    E(el)   - is the total energy from the electronic structure calculation
              = E(kin-el) + E(nuc-el) + E(el-el) + E(nuc-nuc)
    E(ZPE)  - the the zero temperature vibrational energy from the frequency calculation
    E(vib)  - the the finite temperature correction to E(ZPE) due to population
              of excited vibrational states
    E(rot)  - is the rotational thermal energy
    E(trans)- is the translational thermal energy

Summary of contributions to the inner energy U:
Electronic energy                ...   -920.37197018 Eh
Zero point energy                ...      0.25275476 Eh     158.61 kcal/mol
Thermal vibrational correction   ...      2.14193032 Eh    1344.08 kcal/mol
Thermal rotational correction    ...      0.03800158 Eh      23.85 kcal/mol
Thermal translational correction ...      0.03800158 Eh      23.85 kcal/mol
-----------------------------------------------------------------------
Total thermal energy                   -917.90128193 Eh


Summary of corrections to the electronic energy:
(perhaps to be used in another calculation)
Total thermal correction                  2.21793348 Eh    1391.77 kcal/mol
Non-thermal (ZPE) correction              0.25275476 Eh     158.61 kcal/mol
-----------------------------------------------------------------------
Total correction                          2.47068824 Eh    1550.38 kcal/mol


--------
ENTHALPY
--------

The enthalpy is H = U + kB*T
                kB is Boltzmann's constant
Total free energy                 ...   -917.90128193 Eh 
Thermal Enthalpy correction       ...      0.02533514 Eh      15.90 kcal/mol
-----------------------------------------------------------------------
Total Enthalpy                    ...   -917.87594679 Eh


Note: Only C1 symmetry has been detected, increase convergence thresholds 
      if your molecule has a higher symmetry. Symmetry factor of 1.0 is   
      used for the rotational entropy correction. 
 

Note: Rotational entropy computed according to Herzberg 
Infrared and Raman Spectra, Chapter V,1, Van Nostrand Reinhold, 1945 
Point Group:  C1, Symmetry Number:   1  
Rotational constants in cm-1:     0.011570     0.011251     0.005704 

Vibrational entropy computed according to the QRRHO of S. Grimme
Chem.Eur.J. 2012 18 9955


-------
ENTROPY
-------

The entropy contributions are T*S = T*(S(el)+S(vib)+S(rot)+S(trans))
     S(el)   - electronic entropy
     S(vib)  - vibrational entropy
     S(rot)  - rotational entropy
     S(trans)- translational entropy
The entropies will be listed as multiplied by the temperature to get
units of energy

Electronic entropy                ...      0.00000000 Eh      0.00 kcal/mol
Vibrational entropy               ...      6.58136649 Eh   4129.86 kcal/mol
Rotational entropy                ...      0.55897998 Eh    350.76 kcal/mol
Translational entropy             ...      0.75624431 Eh    474.55 kcal/mol
-----------------------------------------------------------------------
Final entropy term                ...      7.89659078 Eh   4955.17 kcal/mol

In case the symmetry of your molecule has not been determined correctly
or in case you have a reason to use a different symmetry number we print 
out the resulting rotational entropy values for sn=1,12 :
 --------------------------------------------------------
|  sn= 1 | S(rot)=       0.55897998 Eh    350.76 kcal/mol|
|  sn= 2 | S(rot)=       0.54141952 Eh    339.75 kcal/mol|
|  sn= 3 | S(rot)=       0.53114731 Eh    333.30 kcal/mol|
|  sn= 4 | S(rot)=       0.52385906 Eh    328.73 kcal/mol|
|  sn= 5 | S(rot)=       0.51820585 Eh    325.18 kcal/mol|
|  sn= 6 | S(rot)=       0.51358685 Eh    322.28 kcal/mol|
|  sn= 7 | S(rot)=       0.50968154 Eh    319.83 kcal/mol|
|  sn= 8 | S(rot)=       0.50629860 Eh    317.71 kcal/mol|
|  sn= 9 | S(rot)=       0.50331464 Eh    315.83 kcal/mol|
|  sn=10 | S(rot)=       0.50064540 Eh    314.16 kcal/mol|
|  sn=11 | S(rot)=       0.49823077 Eh    312.64 kcal/mol|
|  sn=12 | S(rot)=       0.49602639 Eh    311.26 kcal/mol|
 --------------------------------------------------------


-------------------
GIBBS FREE ENERGY
-------------------

The Gibbs free energy is G = H - T*S

Total enthalpy                    ...   -917.87594679 Eh 
Total entropy correction          ...     -7.89659078 Eh  -4955.17 kcal/mol
-----------------------------------------------------------------------
Final Gibbs free energy         ...   -925.77253757 Eh

For completeness - the Gibbs free energy minus the electronic energy
G-E(el)                           ...     -5.40056740 Eh  -3388.90 kcal/mol


The first frequency considered to be a vibration is 8
The total number of vibrations considered is 94


--------------------------
THERMOCHEMISTRY AT 10000.00K
--------------------------

Temperature         ... 10000.00 K
Pressure            ... 1.00 atm
Total Mass          ... 298.34 AMU

Throughout the following assumptions are being made:
  (1) The electronic state is orbitally nondegenerate
  (2) There are no thermally accessible electronically excited states
  (3) Hindered rotations indicated by low frequency modes are not
      treated as such but are treated as vibrations and this may
      cause some error
  (4) All equations used are the standard statistical mechanics
      equations for an ideal gas
  (5) All vibrations are strictly harmonic

freq.      87.62  E(vib)   ...      19.75 
freq.      93.83  E(vib)   ...      19.74 
freq.     132.17  E(vib)   ...      19.68 
freq.     197.32  E(vib)   ...      19.59 
freq.     245.66  E(vib)   ...      19.52 
freq.     292.78  E(vib)   ...      19.46 
freq.     296.67  E(vib)   ...      19.45 
freq.     305.57  E(vib)   ...      19.44 
freq.     367.38  E(vib)   ...      19.35 
freq.     369.67  E(vib)   ...      19.35 
freq.     384.69  E(vib)   ...      19.33 
freq.     387.45  E(vib)   ...      19.32 
freq.     425.67  E(vib)   ...      19.27 
freq.     438.72  E(vib)   ...      19.25 
freq.     463.54  E(vib)   ...      19.22 
freq.     473.37  E(vib)   ...      19.20 
freq.     493.46  E(vib)   ...      19.18 
freq.     495.42  E(vib)   ...      19.17 
freq.     504.22  E(vib)   ...      19.16 
freq.     520.41  E(vib)   ...      19.14 
freq.     560.30  E(vib)   ...      19.08 
freq.     570.47  E(vib)   ...      19.07 
freq.     585.13  E(vib)   ...      19.05 
freq.     600.66  E(vib)   ...      19.03 
freq.     639.92  E(vib)   ...      18.97 
freq.     658.58  E(vib)   ...      18.95 
freq.     660.86  E(vib)   ...      18.94 
freq.     680.96  E(vib)   ...      18.91 
freq.     688.77  E(vib)   ...      18.90 
freq.     730.99  E(vib)   ...      18.85 
freq.     773.37  E(vib)   ...      18.79 
freq.     776.03  E(vib)   ...      18.78 
freq.     782.17  E(vib)   ...      18.78 
freq.     795.09  E(vib)   ...      18.76 
freq.     826.51  E(vib)   ...      18.71 
freq.     830.85  E(vib)   ...      18.71 
freq.     834.76  E(vib)   ...      18.70 
freq.     843.85  E(vib)   ...      18.69 
freq.     871.28  E(vib)   ...      18.65 
freq.     877.15  E(vib)   ...      18.64 
freq.     884.57  E(vib)   ...      18.63 
freq.     924.21  E(vib)   ...      18.58 
freq.     945.45  E(vib)   ...      18.55 
freq.     979.22  E(vib)   ...      18.51 
freq.     983.10  E(vib)   ...      18.50 
freq.     992.10  E(vib)   ...      18.49 
freq.     992.57  E(vib)   ...      18.49 
freq.    1000.73  E(vib)   ...      18.48 
freq.    1011.73  E(vib)   ...      18.46 
freq.    1052.44  E(vib)   ...      18.41 
freq.    1128.46  E(vib)   ...      18.30 
freq.    1139.04  E(vib)   ...      18.29 
freq.    1163.70  E(vib)   ...      18.26 
freq.    1174.83  E(vib)   ...      18.24 
freq.    1191.50  E(vib)   ...      18.22 
freq.    1195.69  E(vib)   ...      18.21 
freq.    1210.65  E(vib)   ...      18.19 
freq.    1235.77  E(vib)   ...      18.16 
freq.    1238.09  E(vib)   ...      18.16 
freq.    1248.12  E(vib)   ...      18.14 
freq.    1253.01  E(vib)   ...      18.14 
freq.    1282.64  E(vib)   ...      18.10 
freq.    1302.07  E(vib)   ...      18.07 
freq.    1328.16  E(vib)   ...      18.03 
freq.    1365.56  E(vib)   ...      17.98 
freq.    1376.24  E(vib)   ...      17.97 
freq.    1387.33  E(vib)   ...      17.96 
freq.    1404.28  E(vib)   ...      17.93 
freq.    1424.31  E(vib)   ...      17.91 
freq.    1441.07  E(vib)   ...      17.88 
freq.    1445.74  E(vib)   ...      17.88 
freq.    1469.52  E(vib)   ...      17.85 
freq.    1479.10  E(vib)   ...      17.83 
freq.    1484.95  E(vib)   ...      17.83 
freq.    1530.11  E(vib)   ...      17.77 
freq.    1534.19  E(vib)   ...      17.76 
freq.    1541.11  E(vib)   ...      17.75 
freq.    1570.12  E(vib)   ...      17.71 
freq.    1599.75  E(vib)   ...      17.67 
freq.    1638.18  E(vib)   ...      17.62 
freq.    1672.35  E(vib)   ...      17.58 
freq.    1677.37  E(vib)   ...      17.57 
freq.    1685.87  E(vib)   ...      17.56 
freq.    1694.23  E(vib)   ...      17.55 
freq.    3164.30  E(vib)   ...      15.69 
freq.    3179.07  E(vib)   ...      15.67 
freq.    3203.51  E(vib)   ...      15.64 
freq.    3205.05  E(vib)   ...      15.64 
freq.    3211.13  E(vib)   ...      15.63 
freq.    3212.65  E(vib)   ...      15.63 
freq.    3221.11  E(vib)   ...      15.62 
freq.    3222.04  E(vib)   ...      15.62 
freq.    3237.85  E(vib)   ...      15.60 
freq.    3247.25  E(vib)   ...      15.59 

------------
INNER ENERGY
------------

The inner energy is: U= E(el) + E(ZPE) + E(vib) + E(rot) + E(trans)
    E(el)   - is the total energy from the electronic structure calculation
              = E(kin-el) + E(nuc-el) + E(el-el) + E(nuc-nuc)
    E(ZPE)  - the the zero temperature vibrational energy from the frequency calculation
    E(vib)  - the the finite temperature correction to E(ZPE) due to population
              of excited vibrational states
    E(rot)  - is the rotational thermal energy
    E(trans)- is the translational thermal energy

Summary of contributions to the inner energy U:
Electronic energy                ...   -920.37197018 Eh
Zero point energy                ...      0.25275476 Eh     158.61 kcal/mol
Thermal vibrational correction   ...      2.73468256 Eh    1716.04 kcal/mol
Thermal rotational correction    ...      0.04750198 Eh      29.81 kcal/mol
Thermal translational correction ...      0.04750198 Eh      29.81 kcal/mol
-----------------------------------------------------------------------
Total thermal energy                   -917.28952890 Eh


Summary of corrections to the electronic energy:
(perhaps to be used in another calculation)
Total thermal correction                  2.82968651 Eh    1775.65 kcal/mol
Non-thermal (ZPE) correction              0.25275476 Eh     158.61 kcal/mol
-----------------------------------------------------------------------
Total correction                          3.08244128 Eh    1934.26 kcal/mol


--------
ENTHALPY
--------

The enthalpy is H = U + kB*T
                kB is Boltzmann's constant
Total free energy                 ...   -917.28952890 Eh 
Thermal Enthalpy correction       ...      0.03166893 Eh      19.87 kcal/mol
-----------------------------------------------------------------------
Total Enthalpy                    ...   -917.25785997 Eh


Note: Only C1 symmetry has been detected, increase convergence thresholds 
      if your molecule has a higher symmetry. Symmetry factor of 1.0 is   
      used for the rotational entropy correction. 
 

Note: Rotational entropy computed according to Herzberg 
Infrared and Raman Spectra, Chapter V,1, Van Nostrand Reinhold, 1945 
Point Group:  C1, Symmetry Number:   1  
Rotational constants in cm-1:     0.011570     0.011251     0.005704 

Vibrational entropy computed according to the QRRHO of S. Grimme
Chem.Eur.J. 2012 18 9955


-------
ENTROPY
-------

The entropy contributions are T*S = T*(S(el)+S(vib)+S(rot)+S(trans))
     S(el)   - electronic entropy
     S(vib)  - vibrational entropy
     S(rot)  - rotational entropy
     S(trans)- translational entropy
The entropies will be listed as multiplied by the temperature to get
units of energy

Electronic entropy                ...      0.00000000 Eh      0.00 kcal/mol
Vibrational entropy               ...      8.88231264 Eh   5573.72 kcal/mol
Rotational entropy                ...      0.70932473 Eh    445.11 kcal/mol
Translational entropy             ...      0.96297166 Eh    604.27 kcal/mol
-----------------------------------------------------------------------
Final entropy term                ...     10.55460903 Eh   6623.10 kcal/mol

In case the symmetry of your molecule has not been determined correctly
or in case you have a reason to use a different symmetry number we print 
out the resulting rotational entropy values for sn=1,12 :
 --------------------------------------------------------
|  sn= 1 | S(rot)=       0.70932473 Eh    445.11 kcal/mol|
|  sn= 2 | S(rot)=       0.68737416 Eh    431.33 kcal/mol|
|  sn= 3 | S(rot)=       0.67453390 Eh    423.28 kcal/mol|
|  sn= 4 | S(rot)=       0.66542358 Eh    417.56 kcal/mol|
|  sn= 5 | S(rot)=       0.65835708 Eh    413.12 kcal/mol|
|  sn= 6 | S(rot)=       0.65258332 Eh    409.50 kcal/mol|
|  sn= 7 | S(rot)=       0.64770168 Eh    406.44 kcal/mol|
|  sn= 8 | S(rot)=       0.64347301 Eh    403.78 kcal/mol|
|  sn= 9 | S(rot)=       0.63974306 Eh    401.44 kcal/mol|
|  sn=10 | S(rot)=       0.63640650 Eh    399.35 kcal/mol|
|  sn=11 | S(rot)=       0.63338822 Eh    397.46 kcal/mol|
|  sn=12 | S(rot)=       0.63063275 Eh    395.73 kcal/mol|
 --------------------------------------------------------


-------------------
GIBBS FREE ENERGY
-------------------

The Gibbs free energy is G = H - T*S

Total enthalpy                    ...   -917.25785997 Eh 
Total entropy correction          ...    -10.55460903 Eh  -6623.10 kcal/mol
-----------------------------------------------------------------------
Final Gibbs free energy         ...   -927.81246900 Eh

For completeness - the Gibbs free energy minus the electronic energy
G-E(el)                           ...     -7.44049882 Eh  -4668.97 kcal/mol


Timings for individual modules:

Sum of individual times         ...    27035.420 sec (= 450.590 min)
GTO integral calculation        ...       33.688 sec (=   0.561 min)   0.1 %
SCF iterations                  ...     6927.828 sec (= 115.464 min)  25.6 %
SCF Gradient evaluation         ...     1613.376 sec (=  26.890 min)   6.0 %
Geometry relaxation             ...        2.653 sec (=   0.044 min)   0.0 %
Analytical frequency calculation...    18457.875 sec (= 307.631 min)  68.3 %
                             ****ORCA TERMINATED NORMALLY****
TOTAL RUN TIME: 0 days 7 hours 30 minutes 49 seconds 215 msec
