
                                 *****************
                                 * O   R   C   A *
                                 *****************

                                            #,                                       
                                            ###                                      
                                            ####                                     
                                            #####                                    
                                            ######                                   
                                           ########,                                 
                                     ,,################,,,,,                         
                               ,,#################################,,                 
                          ,,##########################################,,             
                       ,#########################################, ''#####,          
                    ,#############################################,,   '####,        
                  ,##################################################,,,,####,       
                ,###########''''           ''''###############################       
              ,#####''   ,,,,##########,,,,          '''####'''          '####       
            ,##' ,,,,###########################,,,                        '##       
           ' ,,###''''                  '''############,,,                           
         ,,##''                                '''############,,,,        ,,,,,,###''
      ,#''                                            '''#######################'''  
     '                                                          ''''####''''         
             ,#######,   #######,   ,#######,      ##                                
            ,#'     '#,  ##    ##  ,#'     '#,    #''#        ######   ,####,        
            ##       ##  ##   ,#'  ##            #'  '#       #        #'  '#        
            ##       ##  #######   ##           ,######,      #####,   #    #        
            '#,     ,#'  ##    ##  '#,     ,#' ,#      #,         ##   #,  ,#        
             '#######'   ##     ##  '#######'  #'      '#     #####' # '####'        



                  #######################################################
                  #                        -***-                        #
                  #          Department of theory and spectroscopy      #
                  #    Directorship and core code : Frank Neese         #
                  #        Max Planck Institute fuer Kohlenforschung    #
                  #                Kaiser Wilhelm Platz 1               #
                  #                 D-45470 Muelheim/Ruhr               #
                  #                      Germany                        #
                  #                                                     #
                  #                  All rights reserved                #
                  #                        -***-                        #
                  #######################################################



                         Program Version 5.0.4 -  RELEASE  -

 With contributions from (in alphabetic order):
   Daniel Aravena         : Magnetic Suceptibility
   Michael Atanasov       : Ab Initio Ligand Field Theory (pilot matlab implementation)
   Alexander A. Auer      : GIAO ZORA, VPT2 properties, NMR spectrum
   Ute Becker             : Parallelization
   Giovanni Bistoni       : ED, misc. LED, open-shell LED, HFLD
   Martin Brehm           : Molecular dynamics
   Dmytro Bykov           : SCF Hessian
   Vijay G. Chilkuri      : MRCI spin determinant printing, contributions to CSF-ICE
   Dipayan Datta          : RHF DLPNO-CCSD density
   Achintya Kumar Dutta   : EOM-CC, STEOM-CC
   Dmitry Ganyushin       : Spin-Orbit,Spin-Spin,Magnetic field MRCI
   Miquel Garcia          : C-PCM and meta-GGA Hessian, CC/C-PCM, Gaussian charge scheme
   Yang Guo               : DLPNO-NEVPT2, F12-NEVPT2, CIM, IAO-localization
   Andreas Hansen         : Spin unrestricted coupled pair/coupled cluster methods
   Benjamin Helmich-Paris : MC-RPA, TRAH-SCF, COSX integrals
   Lee Huntington         : MR-EOM, pCC
   Robert Izsak           : Overlap fitted RIJCOSX, COSX-SCS-MP3, EOM
   Marcus Kettner         : VPT2
   Christian Kollmar      : KDIIS, OOCD, Brueckner-CCSD(T), CCSD density, CASPT2, CASPT2-K
   Simone Kossmann        : Meta GGA functionals, TD-DFT gradient, OOMP2, MP2 Hessian
   Martin Krupicka        : Initial AUTO-CI
   Lucas Lang             : DCDCAS
   Marvin Lechner         : AUTO-CI (C++ implementation), FIC-MRCC
   Dagmar Lenk            : GEPOL surface, SMD
   Dimitrios Liakos       : Extrapolation schemes; Compound Job, initial MDCI parallelization
   Dimitrios Manganas     : Further ROCIS development; embedding schemes
   Dimitrios Pantazis     : SARC Basis sets
   Anastasios Papadopoulos: AUTO-CI, single reference methods and gradients
   Taras Petrenko         : DFT Hessian,TD-DFT gradient, ASA, ECA, R-Raman, ABS, FL, XAS/XES, NRVS
   Peter Pinski           : DLPNO-MP2, DLPNO-MP2 Gradient
   Christoph Reimann      : Effective Core Potentials
   Marius Retegan         : Local ZFS, SOC
   Christoph Riplinger    : Optimizer, TS searches, QM/MM, DLPNO-CCSD(T), (RO)-DLPNO pert. Triples
   Tobias Risthaus        : Range-separated hybrids, TD-DFT gradient, RPA, STAB
   Michael Roemelt        : Original ROCIS implementation
   Masaaki Saitow         : Open-shell DLPNO-CCSD energy and density
   Barbara Sandhoefer     : DKH picture change effects
   Avijit Sen             : IP-ROCIS
   Kantharuban Sivalingam : CASSCF convergence, NEVPT2, FIC-MRCI
   Bernardo de Souza      : ESD, SOC TD-DFT
   Georgi Stoychev        : AutoAux, RI-MP2 NMR, DLPNO-MP2 response
   Willem Van den Heuvel  : Paramagnetic NMR
   Boris Wezisla          : Elementary symmetry handling
   Frank Wennmohs         : Technical directorship


 We gratefully acknowledge several colleagues who have allowed us to
 interface, adapt or use parts of their codes:
   Stefan Grimme, W. Hujo, H. Kruse, P. Pracht,  : VdW corrections, initial TS optimization,
                  C. Bannwarth, S. Ehlert          DFT functionals, gCP, sTDA/sTD-DF
   Ed Valeev, F. Pavosevic, A. Kumar             : LibInt (2-el integral package), F12 methods
   Garnet Chan, S. Sharma, J. Yang, R. Olivares  : DMRG
   Ulf Ekstrom                                   : XCFun DFT Library
   Mihaly Kallay                                 : mrcc  (arbitrary order and MRCC methods)
   Jiri Pittner, Ondrej Demel                    : Mk-CCSD
   Frank Weinhold                                : gennbo (NPA and NBO analysis)
   Christopher J. Cramer and Donald G. Truhlar   : smd solvation model
   Lars Goerigk                                  : TD-DFT with DH, B97 family of functionals
   V. Asgeirsson, H. Jonsson                     : NEB implementation
   FAccTs GmbH                                   : IRC, NEB, NEB-TS, DLPNO-Multilevel, CI-OPT
                                                   MM, QMMM, 2- and 3-layer-ONIOM, Crystal-QMMM,
                                                   LR-CPCM, SF, NACMEs, symmetry and pop. for TD-DFT,
                                                   nearIR, NL-DFT gradient (VV10), updates on ESD,
                                                   ML-optimized integration grids
   S Lehtola, MJT Oliveira, MAL Marques          : LibXC Library
   Liviu Ungur et al                             : ANISO software


 Your calculation uses the libint2 library for the computation of 2-el integrals
 For citations please refer to: http://libint.valeyev.net

 Your ORCA version has been built with support for libXC version: 5.1.0
 For citations please refer to: https://tddft.org/programs/libxc/

 This ORCA versions uses:
   CBLAS   interface :  Fast vector & matrix operations
   LAPACKE interface :  Fast linear algebra routines
   Shared memory     :  Shared parallel matrices


Your calculation utilizes the atom-pairwise dispersion correction
based on tight binding partial charges (D4)
Cite in your paper:
E.Caldeweyher, C.Bannwarth, S.Grimme, J.Chem.Phys., (2017), 147, 034112.
E.Caldeweyher, S.Ehlert, A.Hansen, H.Neugebauer, S.Grimme, J.Chem.Phys., (2018), in progress.
   

================================================================================

----- Orbital basis set information -----
Your calculation utilizes the basis: 6-311+G**
   H, Li - Ne  : R. Krishnan, J. S. Binkley, R. Seeger and J. A. Pople, J. Chem. Phys. 72, 650 (1980).
   Na - Ar     : A. D. McLean and G. S. Chandler J. Chem. Phys. 72, 5639, (1980).
   K  - Ca     : J.-P. Blaudeau, M. P. McGrath, L. A. Curtiss and L. Radom, J. Chem. Phys. 107, 5016 (1997).
   Ga - Kr     : L. A. Curtiss, M. P. McGrath, J.-P. Blandeau, N. E. Davis, R. C. Binning and L. Radom, J. Chem. Phys. 103, 6104 (1995).
   Pol./Diff.
   H, Li - Cl  : T. Clark, J. Chandrasekhar and P. v. R. Schleyer, J. Comp. Chem. 4, 294 (1983).
   H - Ne      : M. J. Frisch, J. A. Pople and J. S. Binkley, J. Chem. Phys. 80, 3265 (1984).

----- AuxJ basis set information -----
Your calculation utilizes the auxiliary basis: def2/J
   F. Weigend, Phys. Chem. Chem. Phys. 8, 1057 (2006).

================================================================================
                                        WARNINGS
                       Please study these warnings very carefully!
================================================================================

INFO   : Checking CIS options ...

WARNING: CIS/ROCIS methods need fully converged wavefunctions
  ===> : Setting SCFConvForced true
         You can overwrite this default with %scf ConvForced false 


INFO   : the flag for use of the SHARK integral package has been found!

================================================================================
                                       INPUT FILE
================================================================================
NAME = pyrene_spectra.inp
|  1> !B3LYP 6-311+G**  D4
|  2> 
|  3> %maxcore 5000
|  4> %pal
|  5> nprocs 7
|  6> end
|  7> 
|  8> %TDDFT
|  9>   NROOTS 1000
| 10>   END
| 11> 
| 12> %scf
| 13> stabperform true
| 14> STABDTol 1e-5
| 15> STABRTol 1e-5
| 16> end
| 17>   
| 18> * XYZ 0 1
| 19>   C   -2.82751333634880      1.20836971596305     -0.00035216715034
| 20>   C   -3.51680981376207     -0.00004593793465     -0.00031893402988
| 21>   C   -2.82746318780587     -1.20843291843139     -0.00015919924306
| 22>   C   -1.42626083348602     -1.23396706411881     -0.00002623546338
| 23>   C   -0.67904710569912     -2.45967702629690      0.00013932361388
| 24>   C   0.67914915638704     -2.45964885493026      0.00026962083791
| 25>   C   1.42631201680836     -1.23390786432054      0.00024725512815
| 26>   C   2.82751329003267     -1.20831586178800      0.00038244788282
| 27>   C   3.51680978597862      0.00009973995261      0.00035702951092
| 28>   C   2.82746317514507      1.20848672564749      0.00019512185117
| 29>   C   1.42626086593589      1.23402090942613      0.00005515755919
| 30>   C   0.67904718856134      2.45973090180710     -0.00011367098861
| 31>   C   -0.67914908572469      2.45970274227632     -0.00024615279271
| 32>   C   -1.42631201837767      1.23396177016681     -0.00022098098764
| 33>   C   -0.71192808837814      0.00001217173694     -0.00005538810756
| 34>   C   0.71192803628849      0.00004168861417      0.00008156244842
| 35>   H   -3.37422645053907      2.14653418853517     -0.00047936964425
| 36>   H   -4.60201416834651     -0.00006858971845     -0.00042021350307
| 37>   H   -3.37413748629340     -2.14662009867651     -0.00013560330719
| 38>   H   -1.22714370500393     -3.39718552234977      0.00016065690123
| 39>   H   1.22728452785670     -3.39713466456656      0.00039672586234
| 40>   H   3.37422637517911     -2.14648030606956      0.00051070937900
| 41>   H   4.60201407569047      0.00012244212410      0.00046399128340
| 42>   H   3.37413772286301      2.14667363712496      0.00017665446402
| 43>   H   1.22714358528332      3.39723950382365     -0.00013425902487
| 44>   H   -1.22728452224480      3.39718857200292     -0.00037408247989
| 45> **                         ****END OF INPUT****
================================================================================

                       ****************************
                       * Single Point Calculation *
                       ****************************

---------------------------------
CARTESIAN COORDINATES (ANGSTROEM)
---------------------------------
  C     -2.827513    1.208370   -0.000352
  C     -3.516810   -0.000046   -0.000319
  C     -2.827463   -1.208433   -0.000159
  C     -1.426261   -1.233967   -0.000026
  C     -0.679047   -2.459677    0.000139
  C      0.679149   -2.459649    0.000270
  C      1.426312   -1.233908    0.000247
  C      2.827513   -1.208316    0.000382
  C      3.516810    0.000100    0.000357
  C      2.827463    1.208487    0.000195
  C      1.426261    1.234021    0.000055
  C      0.679047    2.459731   -0.000114
  C     -0.679149    2.459703   -0.000246
  C     -1.426312    1.233962   -0.000221
  C     -0.711928    0.000012   -0.000055
  C      0.711928    0.000042    0.000082
  H     -3.374226    2.146534   -0.000479
  H     -4.602014   -0.000069   -0.000420
  H     -3.374137   -2.146620   -0.000136
  H     -1.227144   -3.397186    0.000161
  H      1.227285   -3.397135    0.000397
  H      3.374226   -2.146480    0.000511
  H      4.602014    0.000122    0.000464
  H      3.374138    2.146674    0.000177
  H      1.227144    3.397240   -0.000134
  H     -1.227285    3.397189   -0.000374

----------------------------
CARTESIAN COORDINATES (A.U.)
----------------------------
  NO LB      ZA    FRAG     MASS         X           Y           Z
   0 C     6.0000    0    12.011   -5.343226    2.283488   -0.000665
   1 C     6.0000    0    12.011   -6.645807   -0.000087   -0.000603
   2 C     6.0000    0    12.011   -5.343131   -2.283607   -0.000301
   3 C     6.0000    0    12.011   -2.695242   -2.331860   -0.000050
   4 C     6.0000    0    12.011   -1.283213   -4.648116    0.000263
   5 C     6.0000    0    12.011    1.283406   -4.648063    0.000510
   6 C     6.0000    0    12.011    2.695339   -2.331748    0.000467
   7 C     6.0000    0    12.011    5.343226   -2.283386    0.000723
   8 C     6.0000    0    12.011    6.645807    0.000188    0.000675
   9 C     6.0000    0    12.011    5.343131    2.283709    0.000369
  10 C     6.0000    0    12.011    2.695242    2.331962    0.000104
  11 C     6.0000    0    12.011    1.283213    4.648218   -0.000215
  12 C     6.0000    0    12.011   -1.283406    4.648165   -0.000465
  13 C     6.0000    0    12.011   -2.695339    2.331850   -0.000418
  14 C     6.0000    0    12.011   -1.345349    0.000023   -0.000105
  15 C     6.0000    0    12.011    1.345349    0.000079    0.000154
  16 H     1.0000    0     1.008   -6.376364    4.056362   -0.000906
  17 H     1.0000    0     1.008   -8.696546   -0.000130   -0.000794
  18 H     1.0000    0     1.008   -6.376196   -4.056524   -0.000256
  19 H     1.0000    0     1.008   -2.318966   -6.419750    0.000304
  20 H     1.0000    0     1.008    2.319232   -6.419654    0.000750
  21 H     1.0000    0     1.008    6.376364   -4.056260    0.000965
  22 H     1.0000    0     1.008    8.696546    0.000231    0.000877
  23 H     1.0000    0     1.008    6.376196    4.056625    0.000334
  24 H     1.0000    0     1.008    2.318965    6.419852   -0.000254
  25 H     1.0000    0     1.008   -2.319232    6.419756   -0.000707

--------------------------------
INTERNAL COORDINATES (ANGSTROEM)
--------------------------------
 C      0   0   0     0.000000000000     0.00000000     0.00000000
 C      1   0   0     1.391185834985     0.00000000     0.00000000
 C      2   1   0     1.391185785891   120.59559187     0.00000000
 C      3   2   1     1.401434996005   120.74738083     0.00000000
 C      4   3   2     1.435511509458   122.41118567   180.00004491
 C      5   4   3     1.358196268628   121.36601039   180.00016548
 C      6   5   4     1.435511517388   121.36600842     0.00000000
 C      7   6   5     1.401434970648   122.41117268   179.99986774
 C      8   7   6     1.391185798698   120.74736861   180.00006052
 C      9   8   7     1.391185783164   120.59559074     0.00000000
 C     10   9   8     1.401434952277   120.74738180     0.00000000
 C     11  10   9     1.435511509387   122.41118494   179.99999396
 C     12  11  10     1.358196281039   121.36600856   180.00006230
 C      1   2   3     1.401435015951   120.74736894     0.00000000
 C      4   3   2     1.425824682809   119.02194270     0.00000000
 C     15   4   3     1.423856131559   120.06711732   179.99982069
 H      1   2   3     1.085839685683   120.06759343   179.99987007
 H      2   1   3     1.085204359547   119.70221013   180.00010352
 H      3   2   1     1.085839755378   120.06758719   180.00007003
 H      5   4   3     1.085970562583   118.32091828     0.00000000
 H      6   5   4     1.085970554334   120.31306521   179.99983382
 H      8   7   6     1.085839646741   119.18503916     0.00000000
 H      9   8   7     1.085204295221   119.70221453   179.99995528
 H     10   9   8     1.085839648535   120.06756929   179.99999227
 H     12  11  10     1.085970551801   118.32093267     0.00000000
 H     13  12  11     1.085970604608   120.31306815   180.00006606

---------------------------
INTERNAL COORDINATES (A.U.)
---------------------------
 C      0   0   0     0.000000000000     0.00000000     0.00000000
 C      1   0   0     2.628960229513     0.00000000     0.00000000
 C      2   1   0     2.628960136739   120.59559187     0.00000000
 C      3   2   1     2.648328336942   120.74738083     0.00000000
 C      4   3   2     2.712723614967   122.41118567   180.00004491
 C      5   4   3     2.566618983821   121.36601039   180.00016548
 C      6   5   4     2.712723629953   121.36600842     0.00000000
 C      7   6   5     2.648328289025   122.41117268   179.99986774
 C      8   7   6     2.628960160940   120.74736861   180.00006052
 C      9   8   7     2.628960131585   120.59559074     0.00000000
 C     10   9   8     2.648328254309   120.74738180     0.00000000
 C     11  10   9     2.712723614832   122.41118494   179.99999396
 C     12  11  10     2.566619007275   121.36600856   180.00006230
 C      1   2   3     2.648328374634   120.74736894     0.00000000
 C      4   3   2     2.694418165493   119.02194270     0.00000000
 C     15   4   3     2.690698142751   120.06711732   179.99982069
 H      1   2   3     2.051939631284   120.06759343   179.99987007
 H      2   1   3     2.050739038881   119.70221013   180.00010352
 H      3   2   1     2.051939762989   120.06758719   180.00007003
 H      5   4   3     2.052186952781   118.32091828     0.00000000
 H      6   5   4     2.052186937195   120.31306521   179.99983382
 H      8   7   6     2.051939557695   119.18503916     0.00000000
 H      9   8   7     2.050738917322   119.70221453   179.99995528
 H     10   9   8     2.051939561085   120.06756929   179.99999227
 H     12  11  10     2.052186932407   118.32093267     0.00000000
 H     13  12  11     2.052187032199   120.31306815   180.00006606

---------------------
BASIS SET INFORMATION
---------------------
There are 2 groups of distinct atoms

 Group   1 Type C   : 12s6p1d contracted to 5s4p1d pattern {63111/3111/1}
 Group   2 Type H   : 5s1p contracted to 3s1p pattern {311/1}

Atom   0C    basis set group =>   1
Atom   1C    basis set group =>   1
Atom   2C    basis set group =>   1
Atom   3C    basis set group =>   1
Atom   4C    basis set group =>   1
Atom   5C    basis set group =>   1
Atom   6C    basis set group =>   1
Atom   7C    basis set group =>   1
Atom   8C    basis set group =>   1
Atom   9C    basis set group =>   1
Atom  10C    basis set group =>   1
Atom  11C    basis set group =>   1
Atom  12C    basis set group =>   1
Atom  13C    basis set group =>   1
Atom  14C    basis set group =>   1
Atom  15C    basis set group =>   1
Atom  16H    basis set group =>   2
Atom  17H    basis set group =>   2
Atom  18H    basis set group =>   2
Atom  19H    basis set group =>   2
Atom  20H    basis set group =>   2
Atom  21H    basis set group =>   2
Atom  22H    basis set group =>   2
Atom  23H    basis set group =>   2
Atom  24H    basis set group =>   2
Atom  25H    basis set group =>   2
---------------------------------
AUXILIARY/J BASIS SET INFORMATION
---------------------------------
There are 2 groups of distinct atoms

 Group   1 Type C   : 12s5p4d2f1g contracted to 6s4p3d1f1g pattern {711111/2111/211/2/1}
 Group   2 Type H   : 5s2p1d contracted to 3s1p1d pattern {311/2/1}

Atom   0C    basis set group =>   1
Atom   1C    basis set group =>   1
Atom   2C    basis set group =>   1
Atom   3C    basis set group =>   1
Atom   4C    basis set group =>   1
Atom   5C    basis set group =>   1
Atom   6C    basis set group =>   1
Atom   7C    basis set group =>   1
Atom   8C    basis set group =>   1
Atom   9C    basis set group =>   1
Atom  10C    basis set group =>   1
Atom  11C    basis set group =>   1
Atom  12C    basis set group =>   1
Atom  13C    basis set group =>   1
Atom  14C    basis set group =>   1
Atom  15C    basis set group =>   1
Atom  16H    basis set group =>   2
Atom  17H    basis set group =>   2
Atom  18H    basis set group =>   2
Atom  19H    basis set group =>   2
Atom  20H    basis set group =>   2
Atom  21H    basis set group =>   2
Atom  22H    basis set group =>   2
Atom  23H    basis set group =>   2
Atom  24H    basis set group =>   2
Atom  25H    basis set group =>   2


           ************************************************************
           *        Program running with 7 parallel MPI-processes     *
           *              working on a common directory               *
           ************************************************************
------------------------------------------------------------------------------
                           ORCA GTO INTEGRAL CALCULATION
                           -- RI-GTO INTEGRALS CHOSEN --
------------------------------------------------------------------------------
------------------------------------------------------------------------------
                   ___                                                        
                  /   \      - P O W E R E D   B Y -                         
                 /     \                                                     
                 |  |  |   _    _      __       _____    __    __             
                 |  |  |  | |  | |    /  \     |  _  \  |  |  /  |          
                  \  \/   | |  | |   /    \    | | | |  |  | /  /          
                 / \  \   | |__| |  /  /\  \   | |_| |  |  |/  /          
                |  |  |   |  __  | /  /__\  \  |    /   |      \           
                |  |  |   | |  | | |   __   |  |    \   |  |\   \          
                \     /   | |  | | |  |  |  |  | |\  \  |  | \   \       
                 \___/    |_|  |_| |__|  |__|  |_| \__\ |__|  \__/        
                                                                              
                      - O R C A' S   B I G   F R I E N D -                    
                                      &                                       
                       - I N T E G R A L  F E E D E R -                       
                                                                              
 v1 FN, 2020, v2 2021                                                         
------------------------------------------------------------------------------


Reading SHARK input file pyrene_spectra.SHARKINP.tmp ... ok
----------------------
SHARK INTEGRAL PACKAGE
----------------------

Number of atoms                             ...     26
Number of basis functions                   ...    412
Number of shells                            ...    200
Maximum angular momentum                    ...      2
Integral batch strategy                     ... SHARK/LIBINT Hybrid
RI-J (if used) integral strategy            ... SPLIT-RIJ (Revised 2003 algorithm where possible)
Printlevel                                  ...      1
Contraction scheme used                     ... SEGMENTED contraction
Coulomb Range Separation                    ... NOT USED
Exchange Range Separation                   ... NOT USED
Finite Nucleus Model                        ... NOT USED
Auxiliary Coulomb fitting basis             ... AVAILABLE
   # of basis functions in Aux-J            ...    894
   # of shells in Aux-J                     ...    290
   Maximum angular momentum in Aux-J        ...      4
Auxiliary J/K fitting basis                 ... NOT available
Auxiliary Correlation fitting basis         ... NOT available
Auxiliary 'external' fitting basis          ... NOT available
Integral threshold                          ...     1.000000e-10
Primitive cut-off                           ...     1.000000e-11
Primitive pair pre-selection threshold      ...     1.000000e-11

Calculating pre-screening integrals         ... done (  0.0 sec) Dimension = 200
Organizing shell pair data                  ... done (  0.1 sec)
Shell pair information
Total number of shell pairs                 ...     20100
Shell pairs after pre-screening             ...     17101
Total number of primitive shell pairs       ...     66796
Primitive shell pairs kept                  ...     38857
          la=0 lb=0:   4986 shell pairs
          la=1 lb=0:   7026 shell pairs
          la=1 lb=1:   2462 shell pairs
          la=2 lb=0:   1452 shell pairs
          la=2 lb=1:   1048 shell pairs
          la=2 lb=2:    127 shell pairs

Calculating one electron integrals          ... done (  0.0 sec)
Calculating RI/J V-Matrix + Cholesky decomp.... done (  0.1 sec)
Calculating Nuclear repulsion               ... done (  0.0 sec) ENN=    967.159620827852 Eh

SHARK setup successfully completed in   0.4 seconds

Maximum memory used throughout the entire GTOINT-calculation: 24.4 MB


           ************************************************************
           *        Program running with 7 parallel MPI-processes     *
           *              working on a common directory               *
           ************************************************************
-------------------------------------------------------------------------------
                                 ORCA SCF
-------------------------------------------------------------------------------

------------
SCF SETTINGS
------------
Hamiltonian:
 Density Functional     Method          .... DFT(GTOs)
 Exchange Functional    Exchange        .... B88
   X-Alpha parameter    XAlpha          ....  0.666667
   Becke's b parameter  XBeta           ....  0.004200
 Correlation Functional Correlation     .... LYP
 LDA part of GGA corr.  LDAOpt          .... VWN-5
 Gradients option       PostSCFGGA      .... off
 Hybrid DFT is turned on
   Fraction HF Exchange ScalHFX         ....  0.200000
   Scaling of DF-GGA-X  ScalDFX         ....  0.720000
   Scaling of DF-GGA-C  ScalDFC         ....  0.810000
   Scaling of DF-LDA-C  ScalLDAC        ....  1.000000
   Perturbative correction              ....  0.000000
   Density functional embedding theory  .... OFF
   NL short-range parameter             ....  4.800000
 RI-approximation to the Coulomb term is turned on
   Number of AuxJ basis functions       .... 894
   RIJ-COSX (HFX calculated with COS-X)).... on


General Settings:
 Integral files         IntName         .... pyrene_spectra
 Hartree-Fock type      HFTyp           .... RHF
 Total Charge           Charge          ....    0
 Multiplicity           Mult            ....    1
 Number of Electrons    NEL             ....  106
 Basis Dimension        Dim             ....  412
 Nuclear Repulsion      ENuc            ....    967.1596208279 Eh

Convergence Acceleration:
 DIIS                   CNVDIIS         .... on
   Start iteration      DIISMaxIt       ....    12
   Startup error        DIISStart       ....  0.200000
   # of expansion vecs  DIISMaxEq       ....     5
   Bias factor          DIISBfac        ....   1.050
   Max. coefficient     DIISMaxC        ....  10.000
 Trust-Rad. Augm. Hess. CNVTRAH         .... auto
   Auto Start mean grad. ratio tolernc. ....  1.125000
   Auto Start start iteration           ....    20
   Auto Start num. interpolation iter.  ....    10
   Max. Number of Micro iterations      ....    16
   Max. Number of Macro iterations      .... Maxiter - #DIIS iter
   Number of Davidson start vectors     ....     2
   Converg. threshold I  (grad. norm)   ....   5.000e-05
   Converg. threshold II (energy diff.) ....   1.000e-06
   Grad. Scal. Fac. for Micro threshold ....   0.100
   Minimum threshold for Micro iter.    ....   0.010
   NR start threshold (gradient norm)   ....   0.001
   Initial trust radius                 ....   0.400
   Minimum AH scaling param. (alpha)    ....   1.000
   Maximum AH scaling param. (alpha)    .... 1000.000
   Orbital update algorithm             .... Taylor
   White noise on init. David. guess    .... on
   Maximum white noise                  ....   0.010
   Quad. conv. algorithm                .... NR
 SOSCF                  CNVSOSCF        .... on
   Start iteration      SOSCFMaxIt      ....   150
   Startup grad/error   SOSCFStart      ....  0.003300
 Level Shifting         CNVShift        .... on
   Level shift para.    LevelShift      ....    0.2500
   Turn off err/grad.   ShiftErr        ....    0.0010
 Zerner damping         CNVZerner       .... off
 Static damping         CNVDamp         .... on
   Fraction old density DampFac         ....    0.7000
   Max. Damping (<1)    DampMax         ....    0.9800
   Min. Damping (>=0)   DampMin         ....    0.0000
   Turn off err/grad.   DampErr         ....    0.1000
 Fernandez-Rico         CNVRico         .... off

SCF Procedure:
 Maximum # iterations   MaxIter         ....   125
 SCF integral mode      SCFMode         .... Direct
   Integral package                     .... SHARK and LIBINT hybrid scheme
 Reset frequency        DirectResetFreq ....    20
 Integral Threshold     Thresh          ....  1.000e-10 Eh
 Primitive CutOff       TCut            ....  1.000e-11 Eh

Convergence Tolerance:
 Convergence Check Mode ConvCheckMode   .... Total+1el-Energy
 Convergence forced     ConvForced      .... 1
 Energy Change          TolE            ....  1.000e-06 Eh
 1-El. energy change                    ....  1.000e-03 Eh
 Orbital Gradient       TolG            ....  5.000e-05
 Orbital Rotation angle TolX            ....  5.000e-05
 DIIS Error             TolErr          ....  1.000e-06


Diagonalization of the overlap matrix:
Smallest eigenvalue                        ... 7.968e-09
Time for diagonalization                   ...    0.013 sec
Threshold for overlap eigenvalues          ... 1.000e-08
Number of eigenvalues below threshold      ... 1
Smallest eigenvalue above threshold        ... 2.654e-08
Time for construction of square roots      ...    0.027 sec
Total time needed                          ...    0.042 sec

Time for model grid setup =    0.191 sec

------------------------------
INITIAL GUESS: MODEL POTENTIAL
------------------------------
Loading Hartree-Fock densities                     ... done
Calculating cut-offs                               ... done
Initializing the effective Hamiltonian             ... done
Setting up the integral package (SHARK)            ... done
Starting the Coulomb interaction                   ... done (   0.2 sec)
Reading the grid                                   ... done
Mapping shells                                     ... done
Starting the XC term evaluation                    ... done (   0.2 sec)
  promolecular density results
     # of electrons  =    105.993189117
     EX              =    -85.287508099
     EC              =     -3.577469622
     EX+EC           =    -88.864977721
Transforming the Hamiltonian                       ... done (   0.0 sec)
Diagonalizing the Hamiltonian                      ... done (   0.0 sec)
Back transforming the eigenvectors                 ... done (   0.0 sec)
Now organizing SCF variables                       ... done
                      ------------------
                      INITIAL GUESS DONE (   0.7 sec)
                      ------------------
-------------------
DFT GRID GENERATION
-------------------

General Integration Accuracy     IntAcc      ... 4.388
Radial Grid Type                 RadialGrid  ... OptM3 with GC (2021)
Angular Grid (max. ang.)         AngularGrid ... 4 (Lebedev-302)
Angular grid pruning method      GridPruning ... 4 (adaptive)
Weight generation scheme         WeightScheme... Becke
Basis function cutoff            BFCut       ... 1.0000e-10
Integration weight cutoff        WCut        ... 1.0000e-14
Angular grids for H and He will be reduced by one unit
Partially contracted basis set               ... off
Rotationally invariant grid construction     ... off

Total number of grid points                  ...   130956
Total number of batches                      ...     2058
Average number of points per batch           ...       63
Average number of grid points per atom       ...     5037
Time for grid setup =    0.796 sec

--------------------
COSX GRID GENERATION
--------------------

GRIDX 1
-------
General Integration Accuracy     IntAcc      ... 3.816
Radial Grid Type                 RadialGrid  ... OptM3 with GC (2021)
Angular Grid (max. ang.)         AngularGrid ... 1 (Lebedev-50)
Angular grid pruning method      GridPruning ... 4 (adaptive)
Weight generation scheme         WeightScheme... Becke
Basis function cutoff            BFCut       ... 1.0000e-10
Integration weight cutoff        WCut        ... 1.0000e-14
Angular grids for H and He will be reduced by one unit
Partially contracted basis set               ... on
Rotationally invariant grid construction     ... off

Total number of grid points                  ...    16690
Total number of batches                      ...      276
Average number of points per batch           ...       60
Average number of grid points per atom       ...      642
UseSFitting                                  ... on

GRIDX 2
-------
General Integration Accuracy     IntAcc      ... 4.020
Radial Grid Type                 RadialGrid  ... OptM3 with GC (2021)
Angular Grid (max. ang.)         AngularGrid ... 2 (Lebedev-110)
Angular grid pruning method      GridPruning ... 4 (adaptive)
Weight generation scheme         WeightScheme... Becke
Basis function cutoff            BFCut       ... 1.0000e-10
Integration weight cutoff        WCut        ... 1.0000e-14
Angular grids for H and He will be reduced by one unit
Partially contracted basis set               ... on
Rotationally invariant grid construction     ... off

Total number of grid points                  ...    39716
Total number of batches                      ...      632
Average number of points per batch           ...       62
Average number of grid points per atom       ...     1528
UseSFitting                                  ... on

GRIDX 3
-------
General Integration Accuracy     IntAcc      ... 4.338
Radial Grid Type                 RadialGrid  ... OptM3 with GC (2021)
Angular Grid (max. ang.)         AngularGrid ... 3 (Lebedev-194)
Angular grid pruning method      GridPruning ... 4 (adaptive)
Weight generation scheme         WeightScheme... Becke
Basis function cutoff            BFCut       ... 1.0000e-10
Integration weight cutoff        WCut        ... 1.0000e-14
Angular grids for H and He will be reduced by one unit
Partially contracted basis set               ... on
Rotationally invariant grid construction     ... off

Total number of grid points                  ...    86034
Total number of batches                      ...     1356
Average number of points per batch           ...       63
Average number of grid points per atom       ...     3309
UseSFitting                                  ... on

Time for X-Grid setup             =    1.060 sec

--------------
SCF ITERATIONS
--------------
ITER       Energy         Delta-E        Max-DP      RMS-DP      [F,P]     Damp
               ***  Starting incremental Fock matrix formation  ***
  0   -615.2186988878   0.00000000000025.91189246  0.26500966  0.1494202 0.7000
  1   -615.3512548900  -0.13255600225322.45795645  0.23531260  0.0800789 0.7000
                               ***Turning on DIIS***
  2   -615.4138544644  -0.062599574349160.97575771  1.58130206  0.0363171 0.0000
  3   -615.5024521232  -0.08859765884829.23246841  0.23025019  0.0428687 0.0000
  4   -615.5245833896  -0.022131266338111.17710757  0.99608061  0.0068244 0.0000
                      *** Initiating the SOSCF procedure ***
                           *** Shutting down DIIS ***
                      *** Re-Reading the Fockian *** 
                      *** Removing any level shift *** 
ITER      Energy       Delta-E        Grad      Rot      Max-DP    RMS-DP
  5   -615.52541353  -0.0008301405  0.000790  0.000790 218.064973  2.074709
               *** Restarting incremental Fock matrix formation ***
  6   -615.52545541  -0.0000418768  0.001860  0.004285 346.629993  3.309820
  7   -615.52541097   0.0000444340  0.002562  0.003135 61.472332  0.591636
  8   -615.52546655  -0.0000555724  0.000568  0.001130 133.374038  1.198561
  9   -615.52545941   0.0000071393  0.001313  0.003725 949.988329  9.127015
 10   -615.52533844   0.0001209631  0.004342  0.002901 777.963191  7.619328
 11   -615.52544039  -0.0001019511  0.000583  0.000583 102.023192  0.818400

          ************************************************************
          *                     SERIOUS PROBLEM IN SOSCF             *
          *                     ------------------------             *
          *                  LARGE STEP WAS ABOUT TO BE TAKEN        *
          *                         ABORTING THE RUN                 *
          ************************************************************
              ***Rediagonalizing the Fockian in SOSCF/NRSCF***

TRAH GRIDX
----------

General Integration Accuracy     IntAcc      ... 3.067
Radial Grid Type                 RadialGrid  ... OptM3 with GC (2021)
Angular Grid (max. ang.)         AngularGrid ... 1 (Lebedev-50)
Angular grid pruning method      GridPruning ... 4 (adaptive)
Weight generation scheme         WeightScheme... Becke
Basis function cutoff            BFCut       ... 1.0000e-10
Integration weight cutoff        WCut        ... 1.0000e-14
Angular grids for H and He will be reduced by one unit
Partially contracted basis set               ... on
Rotationally invariant grid construction     ... off

Total number of grid points                  ...     8856
Total number of batches                      ...      152
Average number of points per batch           ...       58
Average number of grid points per atom       ...      341


TRAH GRID
---------

General Integration Accuracy     IntAcc      ... 3.467
Radial Grid Type                 RadialGrid  ... OptM3 with GC (2021)
Angular Grid (max. ang.)         AngularGrid ... 1 (Lebedev-50)
Angular grid pruning method      GridPruning ... 4 (adaptive)
Weight generation scheme         WeightScheme... Becke
Basis function cutoff            BFCut       ... 1.0000e-10
Integration weight cutoff        WCut        ... 1.0000e-14
Angular grids for H and He will be reduced by one unit
Partially contracted basis set               ... off
Rotationally invariant grid construction     ... off

Total number of grid points                  ...    19644
Total number of batches                      ...      318
Average number of points per batch           ...       61
Average number of grid points per atom       ...      756

 --------------------------------------------------------------------------------------------
   Iter.        energy            ||Error||_2        Shift      TRadius  Mac/Mic        Rej.
 --------------------------------------------------------------------------------------------
    0       -615.525437264513     1.802197e-02                     0.400 (TRAH MAcro)   No
    0     dE    -3.282964e-05     1.590500e-02    -6.5658e-05      0.004 (TRAH MIcro)
    0     dE    -4.006463e-05     2.274220e-03    -8.0128e-05      0.005 (TRAH MIcro)
    0     dE    -4.036486e-05     3.689541e-04    -8.0728e-05      0.005 (TRAH MIcro)
    1       -615.525477907318     1.206915e-03                     0.480 (TRAH MAcro)   No
    1     dE    -7.156198e-08     2.829911e-03    -1.4313e-07      0.000 (TRAH MIcro)
    1     dE    -1.614793e-07     1.178395e-04    -3.2296e-07      0.000 (TRAH MIcro)
    2       -615.525478074548     2.316982e-04                           (NR   MAcro)
    2     dE    -4.541998e-09     1.160491e-04                           (NR   MIcro)
    2     dE    -5.700792e-09     1.129111e-05                           (NR   MIcro)
    2     dE    -5.705834e-09     4.937557e-06                           (NR   MIcro)
    3       -615.525478079358     3.788560e-05                           (NR   MAcro)

               *****************************************************
               *                     SUCCESS                       *
               *           SCF CONVERGED AFTER  24 CYCLES          *
               *****************************************************


------------------------------------------------------------------------------
                          SCF STABILITY ANALYSIS                              
------------------------------------------------------------------------------


---------------
TD-DFT XC SETUP
---------------

DFT calculation                         ... on
Name of the grid file                   ... pyrene_spectra.grid.tmp
Exchange functional (SCF)               ... B88
Exchange functional (TD-DFT)            ... B88
   X-Alpha parameter    XAlpha (SCF)    ...  0.666667
   X-Alpha parameter    XAlpha (TD-DFT) ...  0.666667
   Becke's b parameter  XBeta (SCF)     ...  0.004200
   Becke's b parameter  XBeta (TD-DFT)  ...  0.004200
Correlation functional (SCF)            ... LYP
Correlation functional (TD-DFT)         ... LYP
 LDA part of GGA corr.  LDAOpt (SCF)    ... VWN-5
 LDA part of GGA corr.  LDAOpt (TD-DFT) ... VWN-5
Hybrid DFT                              ... on
   Exchange mixing (SCF)                ...  0.200
   Exchange mixing (TD-DFT)             ...  0.200
   GGA exch. scaling(SCF)               ...  0.720
   GGA exch. scaling (TD-DFT)           ...  0.720
   GGA corr. scaling (SCF)              ...  0.810
   GGA corr. scaling (TD-DFT)           ...  0.810

Electron density on the grid   ... found on disk
Building xc-kernel on the grid ... done
                    *** TD-DFT CALCULATION INITIALIZED ***

                       ****Iteration    0****

   Memory handling for direct AO based CIS:
   Memory per vector needed      ...     5 MB
   Memory needed                 ...    30 MB
   Memory available              ...  5000 MB
   Number of vectors per batch   ...   987
   Number of batches             ...     1
   Time for densities:     0.018
   Time for XC-Integration:     3.779
   Time for K (COSX):    36.016
   Time for Sigma-Completion:     0.050
   Lowest Energy          :     0.077609838530
   Maximum Energy change  :     0.124004974049 (vector 2)
   Maximum residual norm  :     0.005750379710

                       ****Iteration    1****
   Time for densities:     0.025
   Time for XC-Integration:     2.518
   Time for K (COSX):    34.562
   Time for Sigma-Completion:     0.035
   Lowest Energy          :     0.052713562312
   Maximum Energy change  :     0.024896276218 (vector 0)
   Maximum residual norm  :     0.000649256513

                       ****Iteration    2****
   Time for densities:     0.017
   Time for XC-Integration:     2.557
   Time for K (COSX):    34.764
   Time for Sigma-Completion:     0.025
   Lowest Energy          :     0.051303975233
   Maximum Energy change  :     0.001409587079 (vector 0)
   Maximum residual norm  :     0.000044162539

                       ****Iteration    3****
   Time for densities:     0.013
   Time for XC-Integration:     2.595
   Time for K (COSX):    34.569
   Time for Sigma-Completion:     0.023
   Lowest Energy          :     0.051206235545
   Maximum Energy change  :     0.000097739688 (vector 0)
   Maximum residual norm  :     0.000002533556

      *** CONVERGENCE OF RESIDUAL NORM REACHED ***

----------------------------- 
SCF STABILITY ANALYSIS RESULT 
----------------------------- 

RHF/RKS->UHF/UKS - triplet - external

   Root    Eigenvalue (au) 
     0       0.051206 
     1       0.116562 
     2       0.118966 

Stability Analysis indicates a stable HF/KS wave function.


Total time for performing the stability analysis:   152.113sec

Old exchange energy                            =    -17.326292266 Eh
New exchange energy                            =    -17.326322281 Eh
Exchange energy change after final integration =     -0.000030016 Eh
Total energy after final integration           =   -615.525508095 Eh
Final COS-X integration done in                =    11.028 sec

----------------
TOTAL SCF ENERGY
----------------

Total Energy       :         -615.52550809 Eh          -16749.30059 eV

Components:
Nuclear Repulsion  :          967.15962083 Eh           26317.75125 eV
Electronic Energy  :        -1582.68512892 Eh          -43067.05184 eV
One Electron Energy:        -2749.70527814 Eh          -74823.28456 eV
Two Electron Energy:         1167.02014922 Eh           31756.23272 eV
Max COSX asymmetry :            0.00007838 Eh               0.00213 eV

Virial components:
Potential Energy   :        -1228.67701888 Eh          -33434.00144 eV
Kinetic Energy     :          613.15151078 Eh           16684.70084 eV
Virial Ratio       :            2.00387180


DFT components:
N(Alpha)           :       53.000120070768 electrons
N(Beta)            :       53.000120070768 electrons
N(Total)           :      106.000240141536 electrons
E(X)               :      -68.820218825267 Eh       
E(C)               :       -4.219539711409 Eh       
E(XC)              :      -73.039758536676 Eh       
DFET-embed. en.    :        0.000000000000 Eh       

---------------
SCF CONVERGENCE
---------------

  Last Energy change         ...   -4.8109e-09  Tolerance :   1.0000e-06
  Last Orbital Gradient      ...    3.7886e-05  Tolerance :   5.0000e-05
  Last Orbital Rotation      ...    5.5708e-05

             **** THE GBW FILE WAS UPDATED (pyrene_spectra.gbw) ****
             **** DENSITY pyrene_spectra.scfp WAS UPDATED ****
             **** ENERGY FILE WAS UPDATED (pyrene_spectra.en.tmp) ****
             **** THE GBW FILE WAS UPDATED (pyrene_spectra.gbw) ****
             **** DENSITY pyrene_spectra.scfp WAS UPDATED ****
----------------
ORBITAL ENERGIES
----------------

  NO   OCC          E(Eh)            E(eV) 
   0   2.0000     -10.187233      -277.2087 
   1   2.0000     -10.187214      -277.2082 
   2   2.0000     -10.187139      -277.2061 
   3   2.0000     -10.187130      -277.2059 
   4   2.0000     -10.186324      -277.1840 
   5   2.0000     -10.185915      -277.1728 
   6   2.0000     -10.179345      -276.9941 
   7   2.0000     -10.179344      -276.9940 
   8   2.0000     -10.178636      -276.9748 
   9   2.0000     -10.178634      -276.9747 
  10   2.0000     -10.178009      -276.9577 
  11   2.0000     -10.178006      -276.9576 
  12   2.0000     -10.177408      -276.9414 
  13   2.0000     -10.177406      -276.9413 
  14   2.0000     -10.177145      -276.9342 
  15   2.0000     -10.177143      -276.9341 
  16   2.0000      -0.898045       -24.4371 
  17   2.0000      -0.856071       -23.2949 
  18   2.0000      -0.835633       -22.7387 
  19   2.0000      -0.801773       -21.8174 
  20   2.0000      -0.771014       -20.9804 
  21   2.0000      -0.752608       -20.4795 
  22   2.0000      -0.734696       -19.9921 
  23   2.0000      -0.714497       -19.4424 
  24   2.0000      -0.632796       -17.2192 
  25   2.0000      -0.631947       -17.1962 
  26   2.0000      -0.628049       -17.0901 
  27   2.0000      -0.613414       -16.6918 
  28   2.0000      -0.548749       -14.9322 
  29   2.0000      -0.529859       -14.4182 
  30   2.0000      -0.520935       -14.1754 
  31   2.0000      -0.508737       -13.8434 
  32   2.0000      -0.495734       -13.4896 
  33   2.0000      -0.474951       -12.9241 
  34   2.0000      -0.444958       -12.1079 
  35   2.0000      -0.439400       -11.9567 
  36   2.0000      -0.439092       -11.9483 
  37   2.0000      -0.421582       -11.4718 
  38   2.0000      -0.416819       -11.3422 
  39   2.0000      -0.403647       -10.9838 
  40   2.0000      -0.402557       -10.9541 
  41   2.0000      -0.394676       -10.7397 
  42   2.0000      -0.371445       -10.1075 
  43   2.0000      -0.369936       -10.0665 
  44   2.0000      -0.367997       -10.0137 
  45   2.0000      -0.347977        -9.4689 
  46   2.0000      -0.334782        -9.1099 
  47   2.0000      -0.324821        -8.8388 
  48   2.0000      -0.303823        -8.2674 
  49   2.0000      -0.280087        -7.6216 
  50   2.0000      -0.262022        -7.1300 
  51   2.0000      -0.237151        -6.4532 
  52   2.0000      -0.205127        -5.5818 
  53   0.0000      -0.064865        -1.7651 
  54   0.0000      -0.035339        -0.9616 
  55   0.0000      -0.017945        -0.4883 
  56   0.0000      -0.000000        -0.0000 
  57   0.0000       0.000658         0.0179 
  58   0.0000       0.003047         0.0829 
  59   0.0000       0.010731         0.2920 
  60   0.0000       0.012318         0.3352 
  61   0.0000       0.026064         0.7092 
  62   0.0000       0.027758         0.7553 
  63   0.0000       0.041528         1.1300 
  64   0.0000       0.044283         1.2050 
  65   0.0000       0.046401         1.2626 
  66   0.0000       0.047385         1.2894 
  67   0.0000       0.047613         1.2956 
  68   0.0000       0.062681         1.7056 
  69   0.0000       0.066349         1.8054 
  70   0.0000       0.072541         1.9739 
  71   0.0000       0.074178         2.0185 
  72   0.0000       0.075601         2.0572 
  73   0.0000       0.076249         2.0748 
  74   0.0000       0.086714         2.3596 
  75   0.0000       0.095662         2.6031 
  76   0.0000       0.107350         2.9212 
  77   0.0000       0.107570         2.9271 
  78   0.0000       0.107865         2.9351 
  79   0.0000       0.118796         3.2326 
  80   0.0000       0.125601         3.4178 
  81   0.0000       0.126967         3.4550 
  82   0.0000       0.130876         3.5613 
  83   0.0000       0.134006         3.6465 
  84   0.0000       0.139573         3.7980 
  85   0.0000       0.145241         3.9522 
  86   0.0000       0.150815         4.1039 
  87   0.0000       0.151979         4.1356 
  88   0.0000       0.152728         4.1560 
  89   0.0000       0.158575         4.3151 
  90   0.0000       0.160799         4.3756 
  91   0.0000       0.163490         4.4488 
  92   0.0000       0.169464         4.6114 
  93   0.0000       0.172590         4.6964 
  94   0.0000       0.175938         4.7875 
  95   0.0000       0.180202         4.9036 
  96   0.0000       0.182682         4.9710 
  97   0.0000       0.183237         4.9861 
  98   0.0000       0.184703         5.0260 
  99   0.0000       0.189164         5.1474 
 100   0.0000       0.195181         5.3112 
 101   0.0000       0.195273         5.3136 
 102   0.0000       0.206735         5.6256 
 103   0.0000       0.208226         5.6661 
 104   0.0000       0.220113         5.9896 
 105   0.0000       0.221464         6.0264 
 106   0.0000       0.222738         6.0610 
 107   0.0000       0.223394         6.0789 
 108   0.0000       0.231641         6.3033 
 109   0.0000       0.237038         6.4501 
 110   0.0000       0.240232         6.5370 
 111   0.0000       0.245105         6.6697 
 112   0.0000       0.249210         6.7813 
 113   0.0000       0.249691         6.7944 
 114   0.0000       0.249692         6.7945 
 115   0.0000       0.254100         6.9144 
 116   0.0000       0.255314         6.9474 
 117   0.0000       0.258584         7.0364 
 118   0.0000       0.260673         7.0933 
 119   0.0000       0.277152         7.5417 
 120   0.0000       0.278058         7.5663 
 121   0.0000       0.284757         7.7486 
 122   0.0000       0.285071         7.7572 
 123   0.0000       0.293155         7.9772 
 124   0.0000       0.298352         8.1186 
 125   0.0000       0.298822         8.1314 
 126   0.0000       0.300056         8.1649 
 127   0.0000       0.304633         8.2895 
 128   0.0000       0.311711         8.4821 
 129   0.0000       0.317089         8.6284 
 130   0.0000       0.322011         8.7624 
 131   0.0000       0.324138         8.8202 
 132   0.0000       0.344506         9.3745 
 133   0.0000       0.345487         9.4012 
 134   0.0000       0.355391         9.6707 
 135   0.0000       0.359071         9.7708 
 136   0.0000       0.380868        10.3640 
 137   0.0000       0.383178        10.4268 
 138   0.0000       0.387999        10.5580 
 139   0.0000       0.389550        10.6002 
 140   0.0000       0.414242        11.2721 
 141   0.0000       0.425192        11.5701 
 142   0.0000       0.435642        11.8544 
 143   0.0000       0.439154        11.9500 
 144   0.0000       0.447545        12.1783 
 145   0.0000       0.454096        12.3566 
 146   0.0000       0.459247        12.4968 
 147   0.0000       0.462079        12.5738 
 148   0.0000       0.479367        13.0442 
 149   0.0000       0.482168        13.1205 
 150   0.0000       0.499815        13.6006 
 151   0.0000       0.508873        13.8471 
 152   0.0000       0.514606        14.0031 
 153   0.0000       0.528229        14.3738 
 154   0.0000       0.537197        14.6179 
 155   0.0000       0.548001        14.9119 
 156   0.0000       0.554568        15.0906 
 157   0.0000       0.556016        15.1300 
 158   0.0000       0.557767        15.1776 
 159   0.0000       0.560473        15.2512 
 160   0.0000       0.560680        15.2569 
 161   0.0000       0.563581        15.3358 
 162   0.0000       0.584143        15.8953 
 163   0.0000       0.593247        16.1431 
 164   0.0000       0.597617        16.2620 
 165   0.0000       0.598604        16.2888 
 166   0.0000       0.599223        16.3057 
 167   0.0000       0.600909        16.3516 
 168   0.0000       0.603671        16.4267 
 169   0.0000       0.606449        16.5023 
 170   0.0000       0.610318        16.6076 
 171   0.0000       0.626289        17.0422 
 172   0.0000       0.644113        17.5272 
 173   0.0000       0.645753        17.5718 
 174   0.0000       0.648008        17.6332 
 175   0.0000       0.654668        17.8144 
 176   0.0000       0.661200        17.9922 
 177   0.0000       0.663100        18.0439 
 178   0.0000       0.670164        18.2361 
 179   0.0000       0.671861        18.2823 
 180   0.0000       0.704132        19.1604 
 181   0.0000       0.710245        19.3267 
 182   0.0000       0.714954        19.4549 
 183   0.0000       0.727537        19.7973 
 184   0.0000       0.728660        19.8278 
 185   0.0000       0.729996        19.8642 
 186   0.0000       0.740235        20.1428 
 187   0.0000       0.740600        20.1528 
 188   0.0000       0.758528        20.6406 
 189   0.0000       0.761727        20.7276 
 190   0.0000       0.768830        20.9209 
 191   0.0000       0.788522        21.4568 
 192   0.0000       0.790055        21.4985 
 193   0.0000       0.808797        22.0085 
 194   0.0000       0.830364        22.5954 
 195   0.0000       0.835398        22.7323 
 196   0.0000       0.844368        22.9764 
 197   0.0000       0.866232        23.5714 
 198   0.0000       0.882505        24.0142 
 199   0.0000       0.892370        24.2826 
 200   0.0000       0.901465        24.5301 
 201   0.0000       0.907176        24.6855 
 202   0.0000       0.927816        25.2472 
 203   0.0000       0.928911        25.2769 
 204   0.0000       0.930106        25.3095 
 205   0.0000       0.939083        25.5537 
 206   0.0000       0.948013        25.7967 
 207   0.0000       0.955371        25.9970 
 208   0.0000       0.955388        25.9974 
 209   0.0000       0.956714        26.0335 
 210   0.0000       0.973158        26.4810 
 211   0.0000       0.979567        26.6554 
 212   0.0000       0.980924        26.6923 
 213   0.0000       0.988581        26.9007 
 214   0.0000       0.992148        26.9977 
 215   0.0000       1.003783        27.3143 
 216   0.0000       1.008997        27.4562 
 217   0.0000       1.022305        27.8183 
 218   0.0000       1.025408        27.9028 
 219   0.0000       1.029296        28.0086 
 220   0.0000       1.037265        28.2254 
 221   0.0000       1.056423        28.7467 
 222   0.0000       1.062515        28.9125 
 223   0.0000       1.084450        29.5094 
 224   0.0000       1.088986        29.6328 
 225   0.0000       1.110071        30.2066 
 226   0.0000       1.118074        30.4243 
 227   0.0000       1.119187        30.4546 
 228   0.0000       1.125872        30.6365 
 229   0.0000       1.137124        30.9427 
 230   0.0000       1.160678        31.5837 
 231   0.0000       1.160835        31.5879 
 232   0.0000       1.169678        31.8286 
 233   0.0000       1.192576        32.4516 
 234   0.0000       1.221995        33.2522 
 235   0.0000       1.245225        33.8843 
 236   0.0000       1.301321        35.4107 
 237   0.0000       1.358705        36.9722 
 238   0.0000       1.362186        37.0670 
 239   0.0000       1.407528        38.3008 
 240   0.0000       1.411075        38.3973 
 241   0.0000       1.446753        39.3682 
 242   0.0000       1.463653        39.8280 
 243   0.0000       1.471721        40.0476 
 244   0.0000       1.482682        40.3458 
 245   0.0000       1.487917        40.4883 
 246   0.0000       1.500985        40.8439 
 247   0.0000       1.503585        40.9146 
 248   0.0000       1.506149        40.9844 
 249   0.0000       1.506454        40.9927 
 250   0.0000       1.514278        41.2056 
 251   0.0000       1.516234        41.2588 
 252   0.0000       1.542566        41.9754 
 253   0.0000       1.555241        42.3202 
 254   0.0000       1.569465        42.7073 
 255   0.0000       1.570157        42.7262 
 256   0.0000       1.575758        42.8786 
 257   0.0000       1.591814        43.3155 
 258   0.0000       1.615650        43.9641 
 259   0.0000       1.616883        43.9976 
 260   0.0000       1.627620        44.2898 
 261   0.0000       1.629312        44.3358 
 262   0.0000       1.686262        45.8855 
 263   0.0000       1.703052        46.3424 
 264   0.0000       1.713353        46.6227 
 265   0.0000       1.714684        46.6589 
 266   0.0000       1.731934        47.1283 
 267   0.0000       1.735531        47.2262 
 268   0.0000       1.746137        47.5148 
 269   0.0000       1.746493        47.5245 
 270   0.0000       1.754838        47.7516 
 271   0.0000       1.758192        47.8428 
 272   0.0000       1.790960        48.7345 
 273   0.0000       1.804488        49.1026 
 274   0.0000       1.808644        49.2157 
 275   0.0000       1.837356        49.9970 
 276   0.0000       1.885045        51.2947 
 277   0.0000       1.890546        51.4444 
 278   0.0000       1.890838        51.4523 
 279   0.0000       1.898419        51.6586 
 280   0.0000       1.907271        51.8995 
 281   0.0000       1.908844        51.9423 
 282   0.0000       1.912193        52.0334 
 283   0.0000       1.917112        52.1673 
 284   0.0000       1.918175        52.1962 
 285   0.0000       1.935027        52.6548 
 286   0.0000       1.947145        52.9845 
 287   0.0000       1.953107        53.1467 
 288   0.0000       1.953385        53.1543 
 289   0.0000       1.972833        53.6835 
 290   0.0000       1.983147        53.9642 
 291   0.0000       2.011731        54.7420 
 292   0.0000       2.032851        55.3167 
 293   0.0000       2.047850        55.7248 
 294   0.0000       2.051797        55.8322 
 295   0.0000       2.065947        56.2173 
 296   0.0000       2.066507        56.2325 
 297   0.0000       2.073772        56.4302 
 298   0.0000       2.079226        56.5786 
 299   0.0000       2.127208        57.8843 
 300   0.0000       2.129777        57.9542 
 301   0.0000       2.141920        58.2846 
 302   0.0000       2.144061        58.3429 
 303   0.0000       2.193189        59.6797 
 304   0.0000       2.217580        60.3434 
 305   0.0000       2.224730        60.5380 
 306   0.0000       2.238987        60.9259 
 307   0.0000       2.240223        60.9596 
 308   0.0000       2.253663        61.3253 
 309   0.0000       2.310265        62.8655 
 310   0.0000       2.329729        63.3952 
 311   0.0000       2.331245        63.4364 
 312   0.0000       2.358615        64.1812 
 313   0.0000       2.408676        65.5434 
 314   0.0000       2.453499        66.7631 
 315   0.0000       2.460951        66.9659 
 316   0.0000       2.463491        67.0350 
 317   0.0000       2.476614        67.3921 
 318   0.0000       2.480126        67.4877 
 319   0.0000       2.500261        68.0356 
 320   0.0000       2.552433        69.4552 
 321   0.0000       2.568842        69.9018 
 322   0.0000       2.570991        69.9602 
 323   0.0000       2.582072        70.2617 
 324   0.0000       2.629130        71.5423 
 325   0.0000       2.671819        72.7039 
 326   0.0000       2.693963        73.3065 
 327   0.0000       2.702926        73.5503 
 328   0.0000       2.705871        73.6305 
 329   0.0000       2.716829        73.9287 
 330   0.0000       2.721408        74.0533 
 331   0.0000       2.723888        74.1208 
 332   0.0000       2.738255        74.5117 
 333   0.0000       2.741892        74.6107 
 334   0.0000       2.749032        74.8050 
 335   0.0000       2.762860        75.1812 
 336   0.0000       2.764112        75.2153 
 337   0.0000       2.767130        75.2974 
 338   0.0000       2.779334        75.6295 
 339   0.0000       2.792450        75.9864 
 340   0.0000       2.792895        75.9985 
 341   0.0000       2.801308        76.2275 
 342   0.0000       2.811726        76.5110 
 343   0.0000       2.816226        76.6334 
 344   0.0000       2.819030        76.7097 
 345   0.0000       2.839840        77.2760 
 346   0.0000       2.840535        77.2949 
 347   0.0000       2.844830        77.4118 
 348   0.0000       2.882413        78.4344 
 349   0.0000       2.884385        78.4881 
 350   0.0000       2.901771        78.9612 
 351   0.0000       2.918572        79.4184 
 352   0.0000       2.920057        79.4588 
 353   0.0000       2.927682        79.6663 
 354   0.0000       2.932069        79.7857 
 355   0.0000       2.960333        80.5548 
 356   0.0000       3.057187        83.1903 
 357   0.0000       3.059411        83.2508 
 358   0.0000       3.090256        84.0902 
 359   0.0000       3.140193        85.4490 
 360   0.0000       3.211347        87.3852 
 361   0.0000       3.214669        87.4756 
 362   0.0000       3.263485        88.8039 
 363   0.0000       3.273600        89.0792 
 364   0.0000       3.284738        89.3823 
 365   0.0000       3.374961        91.8373 
 366   0.0000       3.404914        92.6524 
 367   0.0000       3.405698        92.6738 
 368   0.0000       3.420355        93.0726 
 369   0.0000       3.429860        93.3312 
 370   0.0000       3.438129        93.5562 
 371   0.0000       3.483416        94.7886 
 372   0.0000       3.484782        94.8257 
 373   0.0000       3.493694        95.0683 
 374   0.0000       3.546882        96.5156 
 375   0.0000       3.560582        96.8884 
 376   0.0000       3.576737        97.3280 
 377   0.0000       3.625097        98.6439 
 378   0.0000       3.636809        98.9626 
 379   0.0000       3.637750        98.9882 
 380   0.0000       3.752377       102.1074 
 381   0.0000       3.802313       103.4662 
 382   0.0000       3.906032       106.2885 
 383   0.0000       4.053189       110.2929 
 384   0.0000       4.056274       110.3768 
 385   0.0000       4.093035       111.3772 
 386   0.0000       4.105605       111.7192 
 387   0.0000       4.106165       111.7344 
 388   0.0000       4.149437       112.9119 
 389   0.0000       4.281982       116.5187 
 390   0.0000       4.333179       117.9118 
 391   0.0000       4.485458       122.0555 
 392   0.0000       4.834759       131.5605 
 393   0.0000       4.837206       131.6271 
 394   0.0000       4.848418       131.9322 
 395   0.0000       4.862612       132.3184 
 396   0.0000      23.457945       638.3231 
 397   0.0000      23.752664       646.3428 
 398   0.0000      23.808882       647.8726 
 399   0.0000      23.885474       649.9568 
 400   0.0000      23.943375       651.5324 
 401   0.0000      23.965015       652.1212 
 402   0.0000      23.974903       652.3903 
 403   0.0000      24.005231       653.2155 
 404   0.0000      24.017621       653.5527 
 405   0.0000      24.052653       654.5060 
 406   0.0000      24.068309       654.9320 
 407   0.0000      24.087927       655.4658 
 408   0.0000      24.179198       657.9494 
 409   0.0000      24.182561       658.0409 
 410   0.0000      24.211766       658.8356 
 411   0.0000      24.219701       659.0516 

                    ********************************
                    * MULLIKEN POPULATION ANALYSIS *
                    ********************************

-----------------------
MULLIKEN ATOMIC CHARGES
-----------------------
   0 C :   -0.265252
   1 C :   -0.074006
   2 C :   -0.277021
   3 C :    1.692952
   4 C :   -0.149620
   5 C :   -0.152536
   6 C :    1.713986
   7 C :   -0.271314
   8 C :   -0.076684
   9 C :   -0.262278
  10 C :    1.674656
  11 C :   -0.141566
  12 C :   -0.143913
  13 C :    1.702943
  14 C :   -3.104324
  15 C :   -3.100678
  16 H :    0.122457
  17 H :    0.126992
  18 H :    0.122448
  19 H :    0.122722
  20 H :    0.122737
  21 H :    0.122413
  22 H :    0.126976
  23 H :    0.122465
  24 H :    0.122736
  25 H :    0.122708
Sum of atomic charges:   -0.0000000

--------------------------------
MULLIKEN REDUCED ORBITAL CHARGES
--------------------------------
  0 C s       :     3.354020  s :     3.354020
      pz      :     1.016441  p :     2.853170
      px      :     0.959923
      py      :     0.876807
      dz2     :     0.003940  d :     0.058061
      dxz     :     0.008737
      dyz     :     0.005681
      dx2y2   :     0.019053
      dxy     :     0.020650
  1 C s       :     3.267133  s :     3.267133
      pz      :     0.974482  p :     2.747486
      px      :     0.940383
      py      :     0.832622
      dz2     :     0.003851  d :     0.059387
      dxz     :     0.003515
      dyz     :     0.011689
      dx2y2   :     0.023177
      dxy     :     0.017155
  2 C s       :     3.367793  s :     3.367793
      pz      :     1.016440  p :     2.851166
      px      :     0.959720
      py      :     0.875005
      dz2     :     0.003941  d :     0.058062
      dxz     :     0.008738
      dyz     :     0.005681
      dx2y2   :     0.019054
      dxy     :     0.020650
  3 C s       :     0.783930  s :     0.783930
      pz      :     0.917523  p :     3.448651
      px      :     1.101783
      py      :     1.429345
      dz2     :     0.004369  d :     0.074467
      dxz     :     0.011765
      dyz     :     0.009731
      dx2y2   :     0.023280
      dxy     :     0.025322
  4 C s       :     3.544568  s :     3.544568
      pz      :     1.003220  p :     2.546577
      px      :     0.634095
      py      :     0.909263
      dz2     :     0.003918  d :     0.058475
      dxz     :     0.010492
      dyz     :     0.004457
      dx2y2   :     0.016561
      dxy     :     0.023046
  5 C s       :     3.548508  s :     3.548508
      pz      :     1.003220  p :     2.545554
      px      :     0.633627
      py      :     0.908707
      dz2     :     0.003918  d :     0.058475
      dxz     :     0.010492
      dyz     :     0.004457
      dx2y2   :     0.016561
      dxy     :     0.023046
  6 C s       :     0.773081  s :     0.773081
      pz      :     0.917523  p :     3.438467
      px      :     1.096912
      py      :     1.424032
      dz2     :     0.004369  d :     0.074467
      dxz     :     0.011765
      dyz     :     0.009731
      dx2y2   :     0.023280
      dxy     :     0.025322
  7 C s       :     3.362406  s :     3.362406
      pz      :     1.016441  p :     2.850848
      px      :     0.958563
      py      :     0.875843
      dz2     :     0.003940  d :     0.058061
      dxz     :     0.008737
      dyz     :     0.005681
      dx2y2   :     0.019052
      dxy     :     0.020650
  8 C s       :     3.269291  s :     3.269291
      pz      :     0.974482  p :     2.748006
      px      :     0.940004
      py      :     0.833520
      dz2     :     0.003851  d :     0.059386
      dxz     :     0.003515
      dyz     :     0.011689
      dx2y2   :     0.023176
      dxy     :     0.017155
  9 C s       :     3.349740  s :     3.349740
      pz      :     1.016441  p :     2.854477
      px      :     0.961067
      py      :     0.876969
      dz2     :     0.003940  d :     0.058061
      dxz     :     0.008738
      dyz     :     0.005681
      dx2y2   :     0.019053
      dxy     :     0.020649
 10 C s       :     0.781198  s :     0.781198
      pz      :     0.917522  p :     3.469680
      px      :     1.114476
      py      :     1.437681
      dz2     :     0.004369  d :     0.074466
      dxz     :     0.011765
      dyz     :     0.009731
      dx2y2   :     0.023280
      dxy     :     0.025322
 11 C s       :     3.547261  s :     3.547261
      pz      :     1.003220  p :     2.535830
      px      :     0.623954
      py      :     0.908656
      dz2     :     0.003918  d :     0.058475
      dxz     :     0.010492
      dyz     :     0.004457
      dx2y2   :     0.016561
      dxy     :     0.023046
 12 C s       :     3.546445  s :     3.546445
      pz      :     1.003220  p :     2.538993
      px      :     0.625877
      py      :     0.909895
      dz2     :     0.003918  d :     0.058475
      dxz     :     0.010492
      dyz     :     0.004457
      dx2y2   :     0.016561
      dxy     :     0.023046
 13 C s       :     0.766095  s :     0.766095
      pz      :     0.917522  p :     3.456495
      px      :     1.106091
      py      :     1.432881
      dz2     :     0.004369  d :     0.074466
      dxz     :     0.011765
      dyz     :     0.009731
      dx2y2   :     0.023279
      dxy     :     0.025322
 14 C s       :     4.358375  s :     4.358375
      pz      :     0.983595  p :     4.674401
      px      :     1.307515
      py      :     2.383291
      dz2     :     0.004549  d :     0.071548
      dxz     :     0.010225
      dyz     :     0.009610
      dx2y2   :     0.023700
      dxy     :     0.023463
 15 C s       :     4.357491  s :     4.357491
      pz      :     0.983594  p :     4.671639
      px      :     1.307467
      py      :     2.380578
      dz2     :     0.004549  d :     0.071548
      dxz     :     0.010225
      dyz     :     0.009610
      dx2y2   :     0.023700
      dxy     :     0.023463
 16 H s       :     0.852243  s :     0.852243
      pz      :     0.006247  p :     0.025300
      px      :     0.007092
      py      :     0.011960
 17 H s       :     0.847852  s :     0.847852
      pz      :     0.006078  p :     0.025156
      px      :     0.014704
      py      :     0.004374
 18 H s       :     0.852252  s :     0.852252
      pz      :     0.006247  p :     0.025299
      px      :     0.007091
      py      :     0.011961
 19 H s       :     0.852006  s :     0.852006
      pz      :     0.006109  p :     0.025272
      px      :     0.006854
      py      :     0.012309
 20 H s       :     0.851991  s :     0.851991
      pz      :     0.006109  p :     0.025272
      px      :     0.006854
      py      :     0.012308
 21 H s       :     0.852287  s :     0.852287
      pz      :     0.006247  p :     0.025300
      px      :     0.007092
      py      :     0.011961
 22 H s       :     0.847868  s :     0.847868
      pz      :     0.006078  p :     0.025156
      px      :     0.014704
      py      :     0.004374
 23 H s       :     0.852235  s :     0.852235
      pz      :     0.006247  p :     0.025300
      px      :     0.007092
      py      :     0.011961
 24 H s       :     0.851992  s :     0.851992
      pz      :     0.006109  p :     0.025272
      px      :     0.006854
      py      :     0.012308
 25 H s       :     0.852021  s :     0.852021
      pz      :     0.006109  p :     0.025272
      px      :     0.006854
      py      :     0.012309


                     *******************************
                     * LOEWDIN POPULATION ANALYSIS *
                     *******************************

----------------------
LOEWDIN ATOMIC CHARGES
----------------------
   0 C :   -0.047524
   1 C :   -0.055282
   2 C :   -0.047527
   3 C :   -0.068128
   4 C :   -0.036605
   5 C :   -0.036607
   6 C :   -0.068126
   7 C :   -0.047528
   8 C :   -0.055283
   9 C :   -0.047523
  10 C :   -0.068131
  11 C :   -0.036605
  12 C :   -0.036605
  13 C :   -0.068128
  14 C :   -0.034215
  15 C :   -0.034215
  16 H :    0.079300
  17 H :    0.074180
  18 H :    0.079300
  19 H :    0.080618
  20 H :    0.080618
  21 H :    0.079301
  22 H :    0.074180
  23 H :    0.079299
  24 H :    0.080618
  25 H :    0.080618

-------------------------------
LOEWDIN REDUCED ORBITAL CHARGES
-------------------------------
  0 C s       :     2.782004  s :     2.782004
      pz      :     0.968914  p :     3.133325
      px      :     1.082986
      py      :     1.081426
      dz2     :     0.008619  d :     0.132196
      dxz     :     0.017193
      dyz     :     0.010155
      dx2y2   :     0.046494
      dxy     :     0.049735
  1 C s       :     2.787477  s :     2.787477
      pz      :     0.957516  p :     3.133054
      px      :     1.058714
      py      :     1.116824
      dz2     :     0.008517  d :     0.134751
      dxz     :     0.005542
      dyz     :     0.023916
      dx2y2   :     0.053149
      dxy     :     0.043627
  2 C s       :     2.782007  s :     2.782007
      pz      :     0.968913  p :     3.133325
      px      :     1.082989
      py      :     1.081423
      dz2     :     0.008619  d :     0.132196
      dxz     :     0.017193
      dyz     :     0.010154
      dx2y2   :     0.046495
      dxy     :     0.049734
  3 C s       :     2.758862  s :     2.758862
      pz      :     0.943952  p :     3.139319
      px      :     1.104025
      py      :     1.091342
      dz2     :     0.011161  d :     0.169947
      dxz     :     0.022533
      dyz     :     0.018894
      dx2y2   :     0.057255
      dxy     :     0.060105
  4 C s       :     2.780948  s :     2.780948
      pz      :     0.961178  p :     3.122636
      px      :     1.112169
      py      :     1.049289
      dz2     :     0.008611  d :     0.133021
      dxz     :     0.020111
      dyz     :     0.008227
      dx2y2   :     0.042843
      dxy     :     0.053229
  5 C s       :     2.780949  s :     2.780949
      pz      :     0.961178  p :     3.122637
      px      :     1.112169
      py      :     1.049291
      dz2     :     0.008611  d :     0.133021
      dxz     :     0.020110
      dyz     :     0.008227
      dx2y2   :     0.042842
      dxy     :     0.053230
  6 C s       :     2.758863  s :     2.758863
      pz      :     0.943952  p :     3.139317
      px      :     1.104024
      py      :     1.091341
      dz2     :     0.011161  d :     0.169947
      dxz     :     0.022533
      dyz     :     0.018894
      dx2y2   :     0.057255
      dxy     :     0.060105
  7 C s       :     2.782005  s :     2.782005
      pz      :     0.968914  p :     3.133327
      px      :     1.082987
      py      :     1.081426
      dz2     :     0.008619  d :     0.132196
      dxz     :     0.017193
      dyz     :     0.010155
      dx2y2   :     0.046495
      dxy     :     0.049735
  8 C s       :     2.787477  s :     2.787477
      pz      :     0.957516  p :     3.133054
      px      :     1.058713
      py      :     1.116825
      dz2     :     0.008517  d :     0.134751
      dxz     :     0.005542
      dyz     :     0.023916
      dx2y2   :     0.053149
      dxy     :     0.043627
  9 C s       :     2.782002  s :     2.782002
      pz      :     0.968914  p :     3.133325
      px      :     1.082988
      py      :     1.081423
      dz2     :     0.008619  d :     0.132196
      dxz     :     0.017193
      dyz     :     0.010154
      dx2y2   :     0.046495
      dxy     :     0.049734
 10 C s       :     2.758863  s :     2.758863
      pz      :     0.943952  p :     3.139321
      px      :     1.104026
      py      :     1.091343
      dz2     :     0.011161  d :     0.169947
      dxz     :     0.022533
      dyz     :     0.018894
      dx2y2   :     0.057256
      dxy     :     0.060105
 11 C s       :     2.780949  s :     2.780949
      pz      :     0.961178  p :     3.122636
      px      :     1.112168
      py      :     1.049290
      dz2     :     0.008611  d :     0.133020
      dxz     :     0.020110
      dyz     :     0.008227
      dx2y2   :     0.042842
      dxy     :     0.053230
 12 C s       :     2.780949  s :     2.780949
      pz      :     0.961178  p :     3.122636
      px      :     1.112167
      py      :     1.049291
      dz2     :     0.008611  d :     0.133020
      dxz     :     0.020110
      dyz     :     0.008227
      dx2y2   :     0.042842
      dxy     :     0.053230
 13 C s       :     2.758861  s :     2.758861
[...]
 761  108267.4     92.4      1.32158  -0.00037   0.00452   0.19796
 762  108276.4     92.4      0.05432  -0.00022   0.00015   0.34065
 763  108331.0     92.3     -0.00017   0.00001  -0.00004  -0.01060
 764  108364.5     92.3      0.00116  -0.00001  -0.00005   0.06578
 765  108371.4     92.3     -0.00404   0.00346  -0.12468  -0.00012
 766  108395.9     92.3      0.00824   0.00197  -0.02560  -0.00023
 767  108470.0     92.2      0.01092  -0.06032   0.01935  -0.00024
 768  108482.5     92.2      0.00120   0.04394   0.03266  -0.00000
 769  108500.6     92.2      0.00010   0.00000   0.00001   0.04379
 770  108534.9     92.1      0.00321  -0.00118   0.04559  -0.00031
 771  108624.7     92.1      0.00003  -0.00002  -0.00000  -0.00486
 772  108711.1     92.0      0.00002  -0.00092   0.01101  -0.00003
 773  108780.7     91.9     -0.01019  -0.00005   0.00000   0.01220
 774  108786.6     91.9     -0.06146  -0.14378   0.08783  -0.01922
 775  108793.8     91.9      0.26187  -0.00131   0.00514   1.62117
 776  108795.5     91.9     -0.20264   0.04660   0.31925  -0.02001
 777  108918.6     91.8      0.00540  -0.30963  -0.00861  -0.00018
 778  108944.4     91.8     -0.00150   0.03479  -0.13841   0.00045
 779  108975.8     91.8     -0.00002  -0.00000   0.00003  -0.01315
 780  109090.5     91.7      0.00187   0.28190   0.00218  -0.00004
 781  109109.8     91.7     -0.00138  -0.00001   0.00000   0.02390
 782  109115.4     91.6     -0.00145   0.00008   0.00001   0.06485
 783  109151.0     91.6      0.00029   0.01933  -0.01527   0.00015
 784  109223.5     91.6     -0.00040  -0.00002   0.00002   0.00208
 785  109294.0     91.5     -0.00017  -0.00006   0.00004   0.56813
 786  109351.1     91.4     -0.00188   0.00004   0.00002  -0.03577
 787  109358.7     91.4      0.00086  -0.00655   0.00038   0.00007
 788  109420.1     91.4      0.00028   0.02175  -0.00359  -0.00012
 789  109424.3     91.4      0.00028   0.02139   0.00297   0.00019
 790  109498.5     91.3     -0.00004  -0.00001  -0.00002  -0.00306
 791  109559.7     91.3     -0.00002   0.00000   0.00006   0.00829
 792  109614.2     91.2      0.00043   0.00563  -0.00840   0.00002
 793  109636.2     91.2      0.00062   0.00002   0.00006  -0.05362
 794  109681.8     91.2      0.00215  -0.00002   0.10835  -0.00008
 795  109704.8     91.2     -0.00006  -0.00001  -0.00003   0.00175
 796  109757.0     91.1     -0.03125   0.00106  -0.47928   0.00012
 797  109763.6     91.1     -0.00203   0.00000  -0.00058  -0.00479
 798  109799.5     91.1      0.02342  -0.00002   0.00011   0.00033
 799  109811.5     91.1      0.00827   0.01106   0.02996   0.00004
 800  109907.2     91.0     -0.00042  -0.00001   0.00005   0.00613
 801  109945.1     91.0     -0.03638  -0.00227  -0.00111  -0.00051
 802  109945.4     91.0      0.03579  -0.00011  -0.00008   0.01041
 803  109976.8     90.9      0.00002  -0.00000   0.00000   0.00667
 804  110045.6     90.9      0.00022   0.00497   0.03255  -0.00002
 805  110158.8     90.8      0.00401   0.00002  -0.00004  -0.27632
 806  110174.4     90.8     -0.00056   0.00000  -0.00001  -0.02432
 807  110179.7     90.8      0.00038   0.00000  -0.00001  -0.00610
 808  110183.9     90.8     -0.00629   0.00054   0.00182  -0.00024
 809  110197.9     90.7      0.00036  -0.00430  -0.00781  -0.00003
 810  110258.4     90.7     -0.00049   0.01072   0.01759   0.00036
 811  110267.5     90.7      0.00252   0.00004  -0.00000  -0.15543
 812  110307.3     90.7      0.00132  -0.00340   0.00125   0.00004
 813  110341.3     90.6     -0.00001  -0.00001  -0.00000   0.00112
 814  110383.8     90.6     -0.00260  -0.00061  -0.00383  -0.00004
 815  110385.1     90.6      0.00330   0.00000   0.00005  -0.00266
 816  110504.3     90.5     -0.00005  -0.00044  -0.06977   0.00004
 817  110527.9     90.5      0.00027  -0.00001   0.00001   0.20216
 818  110549.8     90.5     -0.00001  -0.00001   0.00001   0.01449
 819  110563.2     90.4     -0.00019  -0.00000   0.00002   0.02293
 820  110644.5     90.4     -0.00102  -0.03922  -0.00206   0.00055
 821  110720.8     90.3      0.00081   0.00004  -0.00007  -0.28081
 822  110777.7     90.3      0.06285  -0.00001  -0.04320  -0.00865
 823  110781.0     90.3     -0.07181   0.00004  -0.00006  -0.77455
 824  110817.6     90.2      0.00318   0.00038   0.20054  -0.00159
 825  110893.1     90.2     -0.00117  -0.01216   0.00300   0.00043
 826  110913.3     90.2     -0.00006  -0.00489  -0.00952   0.00020
 827  110961.2     90.1     -0.00037   0.00010   0.08831  -0.00027
 828  110985.5     90.1     -0.00003  -0.00000  -0.00003   0.01959
 829  110994.1     90.1     -0.00032  -0.00111  -0.00092  -0.00021
 830  111002.1     90.1      0.00179   0.00004   0.00001   0.00692
 831  111121.2     90.0     -0.00012   0.00001   0.00001   0.02461
 832  111147.6     90.0      0.00015  -0.00009  -0.00000   0.00880
 833  111184.7     89.9      0.00006   0.00005   0.00000   0.00702
 834  111287.0     89.9      0.00306  -0.42756   0.00049  -0.00001
 835  111300.1     89.8     -0.00017  -0.04377  -0.00233  -0.00027
 836  111327.7     89.8      0.00235   0.00004   0.00003  -0.01517
 837  111375.5     89.8      0.00346   0.00012  -0.00002  -0.13432
 838  111412.1     89.8     -0.00195   0.01505   0.00036   0.00003
 839  111423.1     89.7      0.00122  -0.01916  -0.00419  -0.00006
 840  111435.2     89.7     -0.00418  -0.00004   0.00001   0.00240
 841  111541.5     89.7      0.00403  -0.06777   0.01992  -0.00007
 842  111612.0     89.6     -0.00656   0.00481   0.32815   0.00009
 843  111638.7     89.6      0.00416  -0.00007  -0.00006   0.01813
 844  111654.6     89.6      0.00061   0.01827   0.00766   0.00005
 845  111672.6     89.5     -0.00019  -0.00000   0.00001   0.00005
 846  111838.9     89.4      0.00175  -0.06382   0.00904   0.00157
 847  111842.8     89.4     -0.00442  -0.00030  -0.00000  -0.36427
 848  111870.5     89.4     -0.00133   0.19373  -0.00135  -0.00005
 849  111923.5     89.3     -0.00008   0.01252  -0.00083   0.00006
 850  111952.6     89.3      0.00020   0.00013   0.00000  -0.00535
 851  111963.0     89.3     -0.00023   0.00000  -0.00000  -0.00370
 852  112002.1     89.3     -0.00066   0.00009  -0.00000   0.00427
 853  112008.9     89.3      0.00124   0.00456   0.00554  -0.00002
 854  112073.1     89.2     -0.00120  -0.02094  -0.01119   0.00002
 855  112095.7     89.2      0.00584   0.00005   0.00008  -0.23550
 856  112113.5     89.2      0.00154   0.05920  -0.05005   0.00011
 857  112115.4     89.2      0.00044   0.02819   0.19137   0.00020
 858  112139.9     89.2     -0.00129  -0.01966   0.01829  -0.00001
 859  112157.2     89.2     -0.00157  -0.00001  -0.00001   0.00628
 860  112185.3     89.1      0.00113   0.00000   0.00003   0.00298
 861  112258.4     89.1     -0.00377  -0.00219  -0.01824  -0.00009
 862  112306.3     89.0      0.00006  -0.00001  -0.00005   0.00429
 863  112390.3     89.0     -0.01280   0.00333  -0.60959   0.00014
 864  112401.8     89.0      0.00045  -0.00002   0.00057   0.00865
 865  112431.8     88.9     -0.00052   0.00614  -0.01784   0.00001
 866  112432.3     88.9      0.00089  -0.00001   0.00001   0.00259
 867  112480.5     88.9     -0.00031  -0.00000  -0.00009  -0.00505
 868  112521.9     88.9      0.00951  -0.00001  -0.00006   0.00751
 869  112549.3     88.8     -0.00020   0.03460   0.02251   0.00002
 870  112684.3     88.7      0.00020  -0.00000   0.00000  -0.00886
 871  112695.3     88.7      0.00080  -0.00139  -0.00404   0.00004
 872  112741.7     88.7     -0.00009  -0.03950  -0.00089   0.00003
 873  112800.8     88.7      0.00026  -0.14562  -0.00328  -0.00002
 874  112859.7     88.6      0.00021   0.06051   0.00132   0.00001
 875  112948.9     88.5     -0.00003   0.00000  -0.00002  -0.00286
 876  112994.1     88.5     -0.00040  -0.00000  -0.00000  -0.00381
 877  113031.1     88.5      0.00096   0.00693  -0.04678  -0.00000
 878  113070.8     88.4      0.00075   0.01559   0.00165   0.00008
 879  113152.0     88.4      0.00017  -0.00000   0.00002  -0.02049
 880  113285.7     88.3     -0.00926  -0.00007   0.00006   0.91978
 881  113286.7     88.3      0.01013   0.01026  -0.00520  -0.00115
 882  113351.5     88.2     -0.00002   0.00000   0.00001  -0.00063
 883  113418.7     88.2     -0.00059   0.00027   0.03521  -0.00000
 884  113439.3     88.2      0.00302  -0.00002  -0.00000   0.15522
 885  113464.1     88.1      0.00029  -0.07372  -0.00031  -0.00001
 886  113570.5     88.1      0.00166  -0.00439   0.00493   0.00004
 887  113576.4     88.0      0.00012  -0.00564  -0.00026   0.00001
 888  113612.5     88.0     -0.00122   0.00296  -0.00113  -0.00002
 889  113678.5     88.0     -0.00049   0.00044   0.04876   0.00003
 890  113731.5     87.9     -0.00014  -0.00733   0.00148   0.00001
 891  113744.5     87.9      0.00002  -0.00195  -0.00205   0.00001
 892  113746.2     87.9     -0.00035   0.00000   0.00002  -0.01874
 893  113862.0     87.8     -0.00025   0.08525  -0.00000   0.00004
 894  113888.9     87.8      0.00098   0.00004  -0.00000  -0.00240
 895  114036.1     87.7     -0.00167   0.12101   0.00007  -0.00006
 896  114062.0     87.7     -0.00001   0.00003  -0.00025   0.00001
 897  114088.3     87.7     -0.00067  -0.00004  -0.00001   0.02765
 898  114152.1     87.6     -0.00021  -0.00040  -0.00282   0.00003
 899  114154.7     87.6      0.00203  -0.00001  -0.00020   0.00586
 900  114179.1     87.6      0.00031  -0.00112  -0.07746   0.00003
 901  114180.3     87.6     -0.00130   0.00021  -0.41284   0.00005
 902  114279.4     87.5      0.00055  -0.00192  -0.01431  -0.00002
 903  114325.8     87.5     -0.00428   0.00000   0.00003  -0.04385
 904  114346.9     87.5      0.00026  -0.00001   0.00001  -0.00888
 905  114359.5     87.4      0.00073   0.00001  -0.00002   0.00981
 906  114374.4     87.4      0.00043   0.00174   0.00864   0.00002
 907  114469.5     87.4     -0.00035   0.00004   0.00003  -0.01123
 908  114489.4     87.3     -0.00023  -0.00000  -0.00002  -0.00524
 909  114610.7     87.3      0.00178  -0.17967  -0.00004  -0.00007
 910  114660.3     87.2      0.00089  -0.00018   0.13963   0.00001
 911  114706.6     87.2     -0.00463  -0.00003  -0.00001  -0.02113
 912  114725.8     87.2      0.00051   0.00001   0.00001   0.01405
 913  114769.8     87.1      0.00002  -0.00088   0.00216   0.00002
 914  114795.2     87.1     -0.04234  -0.00051  -0.24195   0.00005
 915  114806.8     87.1      0.04486  -0.00001   0.00025   0.03003
 916  114881.0     87.0     -0.00001  -0.00959  -0.00145  -0.00012
 917  114920.2     87.0     -0.00169   0.00004  -0.00004  -0.20704
 918  114936.3     87.0     -0.00021   0.00000   0.00001   0.01902
 919  114941.0     87.0     -0.00048   0.00001   0.00003   0.04526
 920  114951.6     87.0      0.00060  -0.01635   0.01412  -0.00003
 921  114984.1     87.0      0.00059   0.00004  -0.00001  -0.07831
 922  115001.9     87.0     -0.00078   0.00634   0.01149  -0.00013
 923  115073.3     86.9     -0.00080  -0.00001  -0.00004  -0.25548
 924  115100.7     86.9      0.00071  -0.00000  -0.00001  -0.01658
 925  115118.5     86.9     -0.00014  -0.00777   0.00112   0.00065
 926  115133.2     86.9      0.00131   0.00015  -0.00003  -0.51553
 927  115186.8     86.8     -0.00001  -0.00002  -0.00000   0.01285
 928  115222.1     86.8     -0.00733  -0.34882  -0.00243  -0.00014
 929  115225.1     86.8      0.00696   0.24169  -0.00477   0.00019
 930  115301.4     86.7     -0.00141  -0.00915   0.10215  -0.00020
 931  115327.9     86.7     -0.00033  -0.12369  -0.00688  -0.00031
 932  115387.8     86.7     -0.53679   0.00014  -0.00009  -0.40499
 933  115387.9     86.7      0.53959   0.00113   0.00070  -0.01902
 934  115425.9     86.6     -0.00381  -0.05754  -0.01106  -0.00010
 935  115446.0     86.6     -0.00186   0.10626  -0.00469  -0.00004
 936  115471.7     86.6      0.00021  -0.00001   0.00001   0.00243
 937  115523.8     86.6      0.00007  -0.00001  -0.00001  -0.00575
 938  115549.1     86.5      0.00073  -0.00006   0.00007   0.43115
 939  115676.6     86.4      0.00791  -0.00001  -0.00005   0.31031
 940  115695.9     86.4     -0.00626  -0.00001  -0.00003   0.26300
 941  115705.7     86.4      0.00618   0.00819   0.00163  -0.00014
 942  115723.0     86.4     -0.00041  -0.00000   0.00004  -0.05604
 943  115757.0     86.4     -0.00741  -0.00002  -0.00003   0.41719
 944  115820.1     86.3     -0.00408  -0.00006   0.14754   0.00016
 945  115867.2     86.3      0.00031  -0.00000   0.00002  -0.01030
 946  115949.2     86.2     -0.00003   0.00000   0.00000  -0.00001
 947  115990.3     86.2      0.00111  -0.00002   0.00032   0.00004
 948  115999.3     86.2      0.00193   0.00000  -0.00001   0.01928
 949  116017.1     86.2      0.00002  -0.00001  -0.00000   0.00054
 950  116118.8     86.1      0.00167   0.00000  -0.00001  -0.02446
 951  116122.8     86.1     -0.00015  -0.00003   0.00001  -0.00503
 952  116167.4     86.1     -0.00069   0.00001   0.00000   0.05312
 953  116193.3     86.1     -0.00136  -0.00055   0.00227   0.00033
 954  116230.3     86.0      0.00156  -0.00000  -0.00001  -0.26218
 955  116319.0     86.0      0.00495   0.00818   0.00194   0.00072
 956  116335.6     86.0      0.00550   0.04166   0.05056   0.00021
 957  116343.4     86.0     -0.00219   0.13732  -0.01497   0.00002
 958  116384.5     85.9     -0.02534   0.00020  -0.00010  -1.06587
 959  116424.3     85.9     -0.01951   0.00007  -0.00001  -0.11028
 960  116437.3     85.9      0.03515  -0.01304   0.00445  -0.00023
 961  116467.3     85.9     -0.04355  -0.00136  -0.00001   0.07521
 962  116469.8     85.9     -0.02794  -0.00117  -0.00001   0.04176
 963  116470.9     85.9      0.08218   0.23192   0.00050   0.00084
 964  116503.6     85.8     -0.01056  -0.00216  -0.00463   0.00040
 965  116534.1     85.8     -0.00073  -0.00000  -0.01503   0.00028
 966  116544.2     85.8      0.00091   0.00214   0.00395   0.00010
 967  116578.6     85.8     -0.00133   0.00008   0.00002  -0.00148
 968  116605.7     85.8      0.00022  -0.00005  -0.00000   0.01685
 969  116618.0     85.8      0.00322  -0.00384   0.00221   0.00009
 970  116693.2     85.7     -0.00032  -0.00012  -0.00500  -0.00026
 971  116700.5     85.7     -0.00052  -0.00001  -0.00000   0.00353
 972  116766.8     85.6     -0.00142  -0.00432  -0.00008   0.00006
 973  116787.9     85.6      0.00067  -0.25938  -0.00024  -0.00004
 974  116864.4     85.6     -0.00158  -0.08564  -0.00022   0.00010
 975  116889.8     85.6      0.00041   0.00009  -0.00013   0.01294
 976  116934.3     85.5      0.00080   0.16480  -0.00860   0.00003
 977  116935.0     85.5     -0.00137   0.01201   0.09735   0.00007
 978  116967.7     85.5     -0.00186  -0.00355  -0.00200  -0.00002
 979  117014.4     85.5      0.00156   0.00004   0.00002   0.00225
 980  117016.0     85.5     -0.00045  -0.00003   0.00002   0.00158
 981  117019.3     85.5      0.00078  -0.00002  -0.00003   0.01052
 982  117089.4     85.4      0.00070   0.00897   0.01414   0.00006
 983  117173.9     85.3     -0.01173  -0.00005   0.00003   0.49258
 984  117176.9     85.3     -0.00665   0.00002   0.00000  -0.26549
 985  117186.9     85.3      0.01303  -0.00301   0.00867  -0.00147
 986  117188.3     85.3     -0.00044   0.00001   0.00002  -0.00365
 987  117232.5     85.3     -0.00002   0.00003   0.00001  -0.00190
 988  117300.0     85.3      0.01075   0.04433   0.02046   0.00027
 989  117306.9     85.2      0.00213  -0.17524   0.00635   0.00007
 990  117335.2     85.2     -0.00911   0.00002   0.00014  -0.32273
 991  117357.5     85.2      0.00157  -0.00099  -0.37446  -0.00014
 992  117411.5     85.2      0.00012   0.00000   0.00012   0.03957
 993  117438.4     85.2      0.00015   0.00000  -0.00001   0.01129
 994  117474.2     85.1      0.00044   0.00356  -0.00383  -0.00007
 995  117504.2     85.1     -0.00177   0.00001  -0.00001   0.01736
 996  117568.5     85.1      0.00005  -0.00012   0.00000   0.00052
 997  117569.9     85.1     -0.00399   0.01309  -0.00101  -0.00007
 998  117613.2     85.0      0.00000   0.00001  -0.00003   0.00076
 999  117621.7     85.0      0.00037   0.00002  -0.00001   0.01920
 1000  117626.3     85.0      0.00008  -0.00003  -0.00095  -0.00010

Total run time:     9683.068 sec

           *** ORCA-CIS/TD-DFT FINISHED WITHOUT ERROR ***

Maximum memory used throughout the entire CIS-calculation: 4469.7 MB

-----------------------
CIS/TD-DFT TOTAL ENERGY
-----------------------

    E(SCF)  =   -615.525508095 Eh
    DE(CIS) =      0.137743763 Eh (Root  1)
    ----------------------------- ---------
    E(tot)  =   -615.387764332 Eh



-------------------------------------------------------------------------------
                          DFT DISPERSION CORRECTION                            
                                                                               
                                 DFTD4 V2.5                                    
-------------------------------------------------------------------------------
The B3LYP functional is recognized
Active option DFTDOPT                   ...         5   

Starting D4
-------------------------   ----------------
Dispersion correction           -0.063864563
-------------------------   ----------------


-------------------------   --------------------
FINAL SINGLE POINT ENERGY      -615.451628894802
-------------------------   --------------------


                            ***************************************
                            *     ORCA property calculations      *
                            ***************************************

                                    ---------------------
                                    Active property flags
                                    ---------------------
   (+) Dipole Moment


------------------------------------------------------------------------------
                       ORCA ELECTRIC PROPERTIES CALCULATION
------------------------------------------------------------------------------

Dipole Moment Calculation                       ... on
Quadrupole Moment Calculation                   ... off
Polarizability Calculation                      ... off
GBWName                                         ... pyrene_spectra.gbw
Electron density                                ... pyrene_spectra.scfp
The origin for moment calculation is the CENTER OF MASS  = ( 0.000000,  0.000051  0.000028)

-------------
DIPOLE MOMENT
-------------
                                X             Y             Z
Electronic contribution:     -0.00000      -0.00000      -0.00001
Nuclear contribution   :     -0.00000      -0.00000       0.00002
                        -----------------------------------------
Total Dipole Moment    :     -0.00000      -0.00000       0.00000
                        -----------------------------------------
Magnitude (a.u.)       :      0.00000
Magnitude (Debye)      :      0.00001



--------------------
Rotational spectrum 
--------------------
 
Rotational constants in cm-1:     0.033777     0.018567     0.011981 
Rotational constants in MHz :  1012.598324   556.621828   359.181170 

 Dipole components along the rotational axes: 
x,y,z [a.u.] :     0.000001    -0.000002     0.000002 
x,y,z [Debye]:     0.000003    -0.000005     0.000006 

 

Timings for individual modules:

Sum of individual times         ...     9963.681 sec (= 166.061 min)
GTO integral calculation        ...        0.517 sec (=   0.009 min)   0.0 %
SCF iterations                  ...      279.962 sec (=   4.666 min)   2.8 %
CIS module                      ...     9683.202 sec (= 161.387 min)  97.2 %
                             ****ORCA TERMINATED NORMALLY****
TOTAL RUN TIME: 0 days 2 hours 46 minutes 4 seconds 293 msec
