
                                 *****************
                                 * O   R   C   A *
                                 *****************

                                            #,                                       
                                            ###                                      
                                            ####                                     
                                            #####                                    
                                            ######                                   
                                           ########,                                 
                                     ,,################,,,,,                         
                               ,,#################################,,                 
                          ,,##########################################,,             
                       ,#########################################, ''#####,          
                    ,#############################################,,   '####,        
                  ,##################################################,,,,####,       
                ,###########''''           ''''###############################       
              ,#####''   ,,,,##########,,,,          '''####'''          '####       
            ,##' ,,,,###########################,,,                        '##       
           ' ,,###''''                  '''############,,,                           
         ,,##''                                '''############,,,,        ,,,,,,###''
      ,#''                                            '''#######################'''  
     '                                                          ''''####''''         
             ,#######,   #######,   ,#######,      ##                                
            ,#'     '#,  ##    ##  ,#'     '#,    #''#        ######   ,####,        
            ##       ##  ##   ,#'  ##            #'  '#       #        #'  '#        
            ##       ##  #######   ##           ,######,      #####,   #    #        
            '#,     ,#'  ##    ##  '#,     ,#' ,#      #,         ##   #,  ,#        
             '#######'   ##     ##  '#######'  #'      '#     #####' # '####'        



                  #######################################################
                  #                        -***-                        #
                  #          Department of theory and spectroscopy      #
                  #    Directorship and core code : Frank Neese         #
                  #        Max Planck Institute fuer Kohlenforschung    #
                  #                Kaiser Wilhelm Platz 1               #
                  #                 D-45470 Muelheim/Ruhr               #
                  #                      Germany                        #
                  #                                                     #
                  #                  All rights reserved                #
                  #                        -***-                        #
                  #######################################################



                         Program Version 5.0.4 -  RELEASE  -

 With contributions from (in alphabetic order):
   Daniel Aravena         : Magnetic Suceptibility
   Michael Atanasov       : Ab Initio Ligand Field Theory (pilot matlab implementation)
   Alexander A. Auer      : GIAO ZORA, VPT2 properties, NMR spectrum
   Ute Becker             : Parallelization
   Giovanni Bistoni       : ED, misc. LED, open-shell LED, HFLD
   Martin Brehm           : Molecular dynamics
   Dmytro Bykov           : SCF Hessian
   Vijay G. Chilkuri      : MRCI spin determinant printing, contributions to CSF-ICE
   Dipayan Datta          : RHF DLPNO-CCSD density
   Achintya Kumar Dutta   : EOM-CC, STEOM-CC
   Dmitry Ganyushin       : Spin-Orbit,Spin-Spin,Magnetic field MRCI
   Miquel Garcia          : C-PCM and meta-GGA Hessian, CC/C-PCM, Gaussian charge scheme
   Yang Guo               : DLPNO-NEVPT2, F12-NEVPT2, CIM, IAO-localization
   Andreas Hansen         : Spin unrestricted coupled pair/coupled cluster methods
   Benjamin Helmich-Paris : MC-RPA, TRAH-SCF, COSX integrals
   Lee Huntington         : MR-EOM, pCC
   Robert Izsak           : Overlap fitted RIJCOSX, COSX-SCS-MP3, EOM
   Marcus Kettner         : VPT2
   Christian Kollmar      : KDIIS, OOCD, Brueckner-CCSD(T), CCSD density, CASPT2, CASPT2-K
   Simone Kossmann        : Meta GGA functionals, TD-DFT gradient, OOMP2, MP2 Hessian
   Martin Krupicka        : Initial AUTO-CI
   Lucas Lang             : DCDCAS
   Marvin Lechner         : AUTO-CI (C++ implementation), FIC-MRCC
   Dagmar Lenk            : GEPOL surface, SMD
   Dimitrios Liakos       : Extrapolation schemes; Compound Job, initial MDCI parallelization
   Dimitrios Manganas     : Further ROCIS development; embedding schemes
   Dimitrios Pantazis     : SARC Basis sets
   Anastasios Papadopoulos: AUTO-CI, single reference methods and gradients
   Taras Petrenko         : DFT Hessian,TD-DFT gradient, ASA, ECA, R-Raman, ABS, FL, XAS/XES, NRVS
   Peter Pinski           : DLPNO-MP2, DLPNO-MP2 Gradient
   Christoph Reimann      : Effective Core Potentials
   Marius Retegan         : Local ZFS, SOC
   Christoph Riplinger    : Optimizer, TS searches, QM/MM, DLPNO-CCSD(T), (RO)-DLPNO pert. Triples
   Tobias Risthaus        : Range-separated hybrids, TD-DFT gradient, RPA, STAB
   Michael Roemelt        : Original ROCIS implementation
   Masaaki Saitow         : Open-shell DLPNO-CCSD energy and density
   Barbara Sandhoefer     : DKH picture change effects
   Avijit Sen             : IP-ROCIS
   Kantharuban Sivalingam : CASSCF convergence, NEVPT2, FIC-MRCI
   Bernardo de Souza      : ESD, SOC TD-DFT
   Georgi Stoychev        : AutoAux, RI-MP2 NMR, DLPNO-MP2 response
   Willem Van den Heuvel  : Paramagnetic NMR
   Boris Wezisla          : Elementary symmetry handling
   Frank Wennmohs         : Technical directorship


 We gratefully acknowledge several colleagues who have allowed us to
 interface, adapt or use parts of their codes:
   Stefan Grimme, W. Hujo, H. Kruse, P. Pracht,  : VdW corrections, initial TS optimization,
                  C. Bannwarth, S. Ehlert          DFT functionals, gCP, sTDA/sTD-DF
   Ed Valeev, F. Pavosevic, A. Kumar             : LibInt (2-el integral package), F12 methods
   Garnet Chan, S. Sharma, J. Yang, R. Olivares  : DMRG
   Ulf Ekstrom                                   : XCFun DFT Library
   Mihaly Kallay                                 : mrcc  (arbitrary order and MRCC methods)
   Jiri Pittner, Ondrej Demel                    : Mk-CCSD
   Frank Weinhold                                : gennbo (NPA and NBO analysis)
   Christopher J. Cramer and Donald G. Truhlar   : smd solvation model
   Lars Goerigk                                  : TD-DFT with DH, B97 family of functionals
   V. Asgeirsson, H. Jonsson                     : NEB implementation
   FAccTs GmbH                                   : IRC, NEB, NEB-TS, DLPNO-Multilevel, CI-OPT
                                                   MM, QMMM, 2- and 3-layer-ONIOM, Crystal-QMMM,
                                                   LR-CPCM, SF, NACMEs, symmetry and pop. for TD-DFT,
                                                   nearIR, NL-DFT gradient (VV10), updates on ESD,
                                                   ML-optimized integration grids
   S Lehtola, MJT Oliveira, MAL Marques          : LibXC Library
   Liviu Ungur et al                             : ANISO software


 Your calculation uses the libint2 library for the computation of 2-el integrals
 For citations please refer to: http://libint.valeyev.net

 Your ORCA version has been built with support for libXC version: 5.1.0
 For citations please refer to: https://tddft.org/programs/libxc/

 This ORCA versions uses:
   CBLAS   interface :  Fast vector & matrix operations
   LAPACKE interface :  Fast linear algebra routines
   Shared memory     :  Shared parallel matrices


Your calculation utilizes the atom-pairwise dispersion correction
based on tight binding partial charges (D4)
Cite in your paper:
E.Caldeweyher, C.Bannwarth, S.Grimme, J.Chem.Phys., (2017), 147, 034112.
E.Caldeweyher, S.Ehlert, A.Hansen, H.Neugebauer, S.Grimme, J.Chem.Phys., (2018), in progress.
   

================================================================================

----- Orbital basis set information -----
Your calculation utilizes the basis: 6-311+G**
   H, Li - Ne  : R. Krishnan, J. S. Binkley, R. Seeger and J. A. Pople, J. Chem. Phys. 72, 650 (1980).
   Na - Ar     : A. D. McLean and G. S. Chandler J. Chem. Phys. 72, 5639, (1980).
   K  - Ca     : J.-P. Blaudeau, M. P. McGrath, L. A. Curtiss and L. Radom, J. Chem. Phys. 107, 5016 (1997).
   Ga - Kr     : L. A. Curtiss, M. P. McGrath, J.-P. Blandeau, N. E. Davis, R. C. Binning and L. Radom, J. Chem. Phys. 103, 6104 (1995).
   Pol./Diff.
   H, Li - Cl  : T. Clark, J. Chandrasekhar and P. v. R. Schleyer, J. Comp. Chem. 4, 294 (1983).
   H - Ne      : M. J. Frisch, J. A. Pople and J. S. Binkley, J. Chem. Phys. 80, 3265 (1984).

----- AuxJ basis set information -----
Your calculation utilizes the auxiliary basis: def2/J
   F. Weigend, Phys. Chem. Chem. Phys. 8, 1057 (2006).

================================================================================
                                        WARNINGS
                       Please study these warnings very carefully!
================================================================================

INFO   : Checking CIS options ...

WARNING: CIS/ROCIS methods need fully converged wavefunctions
  ===> : Setting SCFConvForced true
         You can overwrite this default with %scf ConvForced false 


INFO   : the flag for use of the SHARK integral package has been found!

================================================================================
                                       INPUT FILE
================================================================================
NAME = 45Dihydropyrene_spectra.inp
|  1> !B3LYP 6-311+G**  D4
|  2> 
|  3> %maxcore 5000
|  4> %pal
|  5> nprocs 7
|  6> end
|  7> 
|  8> %TDDFT
|  9>   NROOTS 1000
| 10>   END
| 11> 
| 12> %scf
| 13> stabperform true
| 14> STABDTol 1e-5
| 15> STABRTol 1e-5
| 16> end
| 17>   
| 18> * XYZ 0 1
| 19>   C   -2.83355758761386      1.23705084807756     -0.11891659673672
| 20>   C   -3.52414324030020      0.04442625329522     -0.07368102813139
| 21>   C   -2.82818575027012     -1.17035194238375      0.05046530952019
| 22>   C   -1.44631720718305     -1.19725403360002      0.09741595755195
| 23>   C   -0.67780154773847     -2.47108349928665      0.35690444262614
| 24>   C   0.67777208028048     -2.47220146495701     -0.35162715380004
| 25>   C   1.44652833096577     -1.19779163950243     -0.09573562629152
| 26>   C   2.82840254610333     -1.17101089464034     -0.04891745756119
| 27>   C   3.52458329335767      0.04398578425252      0.07182052186565
| 28>   C   2.83421883275774      1.23685699025838      0.11383322029086
| 29>   C   1.42389353555382      1.24932311878913      0.06673513663801
| 30>   C   0.67821439638247      2.47376669903775      0.04388909847282
| 31>   C   -0.67733644323106      2.47375962901361     -0.05218710011601
| 32>   C   -1.42323259421414      1.24939030043663     -0.07177862933284
| 33>   C   -0.72271806846865      0.01617233363098     -0.00480315007648
| 34>   C   0.72315672753166      0.01605102025406      0.00313821201661
| 35>   H   -3.36773321986638      2.18037233537766     -0.18235312123950
| 36>   H   -4.60863365079338      0.04075725559853     -0.11451115116448
| 37>   H   -3.38313005304366     -2.10115757843777      0.12638507852772
| 38>   H   -0.51388496276560     -2.55976142249784      1.43989930544548
| 39>   H   -1.26844937360401     -3.34185586443297      0.05921857439455
| 40>   H   1.26826211637949     -3.34224065514963     -0.05149743772789
| 41>   H   0.51382195905843     -2.56389902314126     -1.43436722977047
| 42>   H   3.38317790537867     -2.10212215910525     -0.12228178375356
| 43>   H   4.60907525469114      0.04023188904050      0.11259743107378
| 44>   H   3.36857296482775      2.18024921295713      0.17466151302885
| 45>   H   1.22502263811764      3.41132682144681      0.08258682382158
| 46>   H   -1.22397888229349      3.41130968566843     -0.09339315957209
| 47> **                         ****END OF INPUT****
================================================================================

                       ****************************
                       * Single Point Calculation *
                       ****************************

---------------------------------
CARTESIAN COORDINATES (ANGSTROEM)
---------------------------------
  C     -2.833558    1.237051   -0.118917
  C     -3.524143    0.044426   -0.073681
  C     -2.828186   -1.170352    0.050465
  C     -1.446317   -1.197254    0.097416
  C     -0.677802   -2.471083    0.356904
  C      0.677772   -2.472201   -0.351627
  C      1.446528   -1.197792   -0.095736
  C      2.828403   -1.171011   -0.048917
  C      3.524583    0.043986    0.071821
  C      2.834219    1.236857    0.113833
  C      1.423894    1.249323    0.066735
  C      0.678214    2.473767    0.043889
  C     -0.677336    2.473760   -0.052187
  C     -1.423233    1.249390   -0.071779
  C     -0.722718    0.016172   -0.004803
  C      0.723157    0.016051    0.003138
  H     -3.367733    2.180372   -0.182353
  H     -4.608634    0.040757   -0.114511
  H     -3.383130   -2.101158    0.126385
  H     -0.513885   -2.559761    1.439899
  H     -1.268449   -3.341856    0.059219
  H      1.268262   -3.342241   -0.051497
  H      0.513822   -2.563899   -1.434367
  H      3.383178   -2.102122   -0.122282
  H      4.609075    0.040232    0.112597
  H      3.368573    2.180249    0.174662
  H      1.225023    3.411327    0.082587
  H     -1.223979    3.411310   -0.093393

----------------------------
CARTESIAN COORDINATES (A.U.)
----------------------------
  NO LB      ZA    FRAG     MASS         X           Y           Z
   0 C     6.0000    0    12.011   -5.354648    2.337687   -0.224720
   1 C     6.0000    0    12.011   -6.659666    0.083953   -0.139237
   2 C     6.0000    0    12.011   -5.344497   -2.211645    0.095366
   3 C     6.0000    0    12.011   -2.733143   -2.262482    0.184089
   4 C     6.0000    0    12.011   -1.280859   -4.669671    0.674452
   5 C     6.0000    0    12.011    1.280804   -4.671784   -0.664479
   6 C     6.0000    0    12.011    2.733542   -2.263498   -0.180914
   7 C     6.0000    0    12.011    5.344906   -2.212890   -0.092441
   8 C     6.0000    0    12.011    6.660497    0.083121    0.135721
   9 C     6.0000    0    12.011    5.355897    2.337321    0.215114
  10 C     6.0000    0    12.011    2.690769    2.360879    0.126111
  11 C     6.0000    0    12.011    1.281639    4.674742    0.082938
  12 C     6.0000    0    12.011   -1.279980    4.674728   -0.098619
  13 C     6.0000    0    12.011   -2.689520    2.361006   -0.135642
  14 C     6.0000    0    12.011   -1.365739    0.030561   -0.009077
  15 C     6.0000    0    12.011    1.366568    0.030332    0.005930
  16 H     1.0000    0     1.008   -6.364093    4.120307   -0.344597
  17 H     1.0000    0     1.008   -8.709055    0.077020   -0.216395
  18 H     1.0000    0     1.008   -6.393189   -3.970612    0.238833
  19 H     1.0000    0     1.008   -0.971102   -4.837248    2.721015
  20 H     1.0000    0     1.008   -2.397022   -6.315192    0.111907
  21 H     1.0000    0     1.008    2.396668   -6.315920   -0.097316
  22 H     1.0000    0     1.008    0.970983   -4.845067   -2.710561
  23 H     1.0000    0     1.008    6.393280   -3.972435   -0.231079
  24 H     1.0000    0     1.008    8.709890    0.076027    0.212778
  25 H     1.0000    0     1.008    6.365680    4.120074    0.330062
  26 H     1.0000    0     1.008    2.314957    6.446473    0.156066
  27 H     1.0000    0     1.008   -2.312985    6.446441   -0.176487

--------------------------------
INTERNAL COORDINATES (ANGSTROEM)
--------------------------------
 C      0   0   0     0.000000000000     0.00000000     0.00000000
 C      1   0   0     1.378879336433     0.00000000     0.00000000
 C      2   1   0     1.405508877872   120.16257177     0.00000000
 C      3   2   1     1.382927603397   120.97050927   358.45818917
 C      4   3   2     1.510162938344   122.05603722   174.28099668
 C      5   4   3     1.529574494414   111.84068748   148.72802229
 C      6   5   4     1.510161266234   111.84140377    49.28078474
 C      7   6   5     1.382926424536   122.05594614   148.73046661
 C      8   7   6     1.405511373929   120.97030161   174.28192508
 C      9   8   7     1.378879932919   120.16306960   358.46135200
 C     10   9   8     1.411166566277   120.46402928     1.43692899
 C     11  10   9     1.433813586652   121.85913717   183.03988747
 C     12  11  10     1.358951329063   121.32471908   177.49394614
 C      1   2   3     1.411166480988   120.46418242     1.43940354
 C      4   3   2     1.416491443039   119.42827380   358.88494338
 C      7   6   5     1.416494445877   118.36082325   324.17462819
 H      1   2   3     1.085920451569   120.45736437   181.98895518
 H      2   1   3     1.085264949652   120.14323979   178.81933682
 H      3   2   1     1.086336100209   119.58930969   177.49187350
 H      5   4   3     1.098913233057   108.25910546   268.73381827
 H      5   4   3     1.093492680473   110.49005960    25.04334758
 H      6   5   4     1.093491893739   110.61067357   172.89794200
 H      6   5   4     1.098914990588   108.91973736   289.66328975
 H      8   7   6     1.086336140626   119.43341303   355.24744428
 H      9   8   7     1.085264789003   119.68339179   179.63451578
 H     10   9   8     1.085920487654   120.45725594   181.98663587
 H     12  11  10     1.086055132260   118.34645583   358.87086575
 H     13  12  11     1.086055249172   120.31454645   181.55031900

---------------------------
INTERNAL COORDINATES (A.U.)
---------------------------
 C      0   0   0     0.000000000000     0.00000000     0.00000000
 C      1   0   0     2.605704317582     0.00000000     0.00000000
 C      2   1   0     2.656026857974   120.16257177     0.00000000
 C      3   2   1     2.613354433459   120.97050927   358.45818917
 C      4   3   2     2.853794371069   122.05603722   174.28099668
 C      5   4   3     2.890476895874   111.84068748   148.72802229
 C      6   5   4     2.853791211238   111.84140377    49.28078474
 C      7   6   5     2.613352205736   122.05594614   148.73046661
 C      8   7   6     2.656031574838   120.97030161   174.28192508
 C      9   8   7     2.605705444776   120.16306960   358.46135200
 C     10   9   8     2.666718339609   120.46402928     1.43692899
 C     11  10   9     2.709515005867   121.85913717   183.03988747
 C     12  11  10     2.568045841257   121.32471908   177.49394614
 C      1   2   3     2.666718178436   120.46418242     1.43940354
 C      4   3   2     2.676780898387   119.42827380   358.88494338
 C      7   6   5     2.676786572929   118.36082325   324.17462819
 H      1   2   3     2.052092256689   120.45736437   181.98895518
 H      2   1   3     2.050853537586   120.14323979   178.81933682
 H      3   2   1     2.052877718787   119.58930969   177.49187350
 H      5   4   3     2.076645055419   108.25910546   268.73381827
 H      5   4   3     2.066401695541   110.49005960    25.04334758
 H      6   5   4     2.066400208830   110.61067357   172.89794200
 H      6   5   4     2.076648376671   108.91973736   289.66328975
 H      8   7   6     2.052877795164   119.43341303   355.24744428
 H      9   8   7     2.050853234004   119.68339179   179.63451578
 H     10   9   8     2.052092324880   120.45725594   181.98663587
 H     12  11  10     2.052346766311   118.34645583   358.87086575
 H     13  12  11     2.052346987242   120.31454645   181.55031900

---------------------
BASIS SET INFORMATION
---------------------
There are 2 groups of distinct atoms

 Group   1 Type C   : 12s6p1d contracted to 5s4p1d pattern {63111/3111/1}
 Group   2 Type H   : 5s1p contracted to 3s1p pattern {311/1}

Atom   0C    basis set group =>   1
Atom   1C    basis set group =>   1
Atom   2C    basis set group =>   1
Atom   3C    basis set group =>   1
Atom   4C    basis set group =>   1
Atom   5C    basis set group =>   1
Atom   6C    basis set group =>   1
Atom   7C    basis set group =>   1
Atom   8C    basis set group =>   1
Atom   9C    basis set group =>   1
Atom  10C    basis set group =>   1
Atom  11C    basis set group =>   1
Atom  12C    basis set group =>   1
Atom  13C    basis set group =>   1
Atom  14C    basis set group =>   1
Atom  15C    basis set group =>   1
Atom  16H    basis set group =>   2
Atom  17H    basis set group =>   2
Atom  18H    basis set group =>   2
Atom  19H    basis set group =>   2
Atom  20H    basis set group =>   2
Atom  21H    basis set group =>   2
Atom  22H    basis set group =>   2
Atom  23H    basis set group =>   2
Atom  24H    basis set group =>   2
Atom  25H    basis set group =>   2
Atom  26H    basis set group =>   2
Atom  27H    basis set group =>   2
---------------------------------
AUXILIARY/J BASIS SET INFORMATION
---------------------------------
There are 2 groups of distinct atoms

 Group   1 Type C   : 12s5p4d2f1g contracted to 6s4p3d1f1g pattern {711111/2111/211/2/1}
 Group   2 Type H   : 5s2p1d contracted to 3s1p1d pattern {311/2/1}

Atom   0C    basis set group =>   1
Atom   1C    basis set group =>   1
Atom   2C    basis set group =>   1
Atom   3C    basis set group =>   1
Atom   4C    basis set group =>   1
Atom   5C    basis set group =>   1
Atom   6C    basis set group =>   1
Atom   7C    basis set group =>   1
Atom   8C    basis set group =>   1
Atom   9C    basis set group =>   1
Atom  10C    basis set group =>   1
Atom  11C    basis set group =>   1
Atom  12C    basis set group =>   1
Atom  13C    basis set group =>   1
Atom  14C    basis set group =>   1
Atom  15C    basis set group =>   1
Atom  16H    basis set group =>   2
Atom  17H    basis set group =>   2
Atom  18H    basis set group =>   2
Atom  19H    basis set group =>   2
Atom  20H    basis set group =>   2
Atom  21H    basis set group =>   2
Atom  22H    basis set group =>   2
Atom  23H    basis set group =>   2
Atom  24H    basis set group =>   2
Atom  25H    basis set group =>   2
Atom  26H    basis set group =>   2
Atom  27H    basis set group =>   2


           ************************************************************
           *        Program running with 7 parallel MPI-processes     *
           *              working on a common directory               *
           ************************************************************
------------------------------------------------------------------------------
                           ORCA GTO INTEGRAL CALCULATION
                           -- RI-GTO INTEGRALS CHOSEN --
------------------------------------------------------------------------------
------------------------------------------------------------------------------
                   ___                                                        
                  /   \      - P O W E R E D   B Y -                         
                 /     \                                                     
                 |  |  |   _    _      __       _____    __    __             
                 |  |  |  | |  | |    /  \     |  _  \  |  |  /  |          
                  \  \/   | |  | |   /    \    | | | |  |  | /  /          
                 / \  \   | |__| |  /  /\  \   | |_| |  |  |/  /          
                |  |  |   |  __  | /  /__\  \  |    /   |      \           
                |  |  |   | |  | | |   __   |  |    \   |  |\   \          
                \     /   | |  | | |  |  |  |  | |\  \  |  | \   \       
                 \___/    |_|  |_| |__|  |__|  |_| \__\ |__|  \__/        
                                                                              
                      - O R C A' S   B I G   F R I E N D -                    
                                      &                                       
                       - I N T E G R A L  F E E D E R -                       
                                                                              
 v1 FN, 2020, v2 2021                                                         
------------------------------------------------------------------------------


Reading SHARK input file 45Dihydropyrene_spectra.SHARKINP.tmp ... ok
----------------------
SHARK INTEGRAL PACKAGE
----------------------

Number of atoms                             ...     28
Number of basis functions                   ...    424
Number of shells                            ...    208
Maximum angular momentum                    ...      2
Integral batch strategy                     ... SHARK/LIBINT Hybrid
RI-J (if used) integral strategy            ... SPLIT-RIJ (Revised 2003 algorithm where possible)
Printlevel                                  ...      1
Contraction scheme used                     ... SEGMENTED contraction
Coulomb Range Separation                    ... NOT USED
Exchange Range Separation                   ... NOT USED
Finite Nucleus Model                        ... NOT USED
Auxiliary Coulomb fitting basis             ... AVAILABLE
   # of basis functions in Aux-J            ...    916
   # of shells in Aux-J                     ...    300
   Maximum angular momentum in Aux-J        ...      4
Auxiliary J/K fitting basis                 ... NOT available
Auxiliary Correlation fitting basis         ... NOT available
Auxiliary 'external' fitting basis          ... NOT available
Integral threshold                          ...     1.000000e-10
Primitive cut-off                           ...     1.000000e-11
Primitive pair pre-selection threshold      ...     1.000000e-11

Calculating pre-screening integrals         ... done (  0.0 sec) Dimension = 208
Organizing shell pair data                  ... done (  0.1 sec)
Shell pair information
Total number of shell pairs                 ...     21736
Shell pairs after pre-screening             ...     18435
Total number of primitive shell pairs       ...     71248
Primitive shell pairs kept                  ...     41443
          la=0 lb=0:   5553 shell pairs
          la=1 lb=0:   7574 shell pairs
          la=1 lb=1:   2581 shell pairs
          la=2 lb=0:   1528 shell pairs
          la=2 lb=1:   1072 shell pairs
          la=2 lb=2:    127 shell pairs

Calculating one electron integrals          ... done (  0.0 sec)
Calculating RI/J V-Matrix + Cholesky decomp.... done (  0.1 sec)
Calculating Nuclear repulsion               ... done (  0.0 sec) ENN=    997.528753182638 Eh

SHARK setup successfully completed in   0.4 seconds

Maximum memory used throughout the entire GTOINT-calculation: 25.9 MB


           ************************************************************
           *        Program running with 7 parallel MPI-processes     *
           *              working on a common directory               *
           ************************************************************
-------------------------------------------------------------------------------
                                 ORCA SCF
-------------------------------------------------------------------------------

------------
SCF SETTINGS
------------
Hamiltonian:
 Density Functional     Method          .... DFT(GTOs)
 Exchange Functional    Exchange        .... B88
   X-Alpha parameter    XAlpha          ....  0.666667
   Becke's b parameter  XBeta           ....  0.004200
 Correlation Functional Correlation     .... LYP
 LDA part of GGA corr.  LDAOpt          .... VWN-5
 Gradients option       PostSCFGGA      .... off
 Hybrid DFT is turned on
   Fraction HF Exchange ScalHFX         ....  0.200000
   Scaling of DF-GGA-X  ScalDFX         ....  0.720000
   Scaling of DF-GGA-C  ScalDFC         ....  0.810000
   Scaling of DF-LDA-C  ScalLDAC        ....  1.000000
   Perturbative correction              ....  0.000000
   Density functional embedding theory  .... OFF
   NL short-range parameter             ....  4.800000
 RI-approximation to the Coulomb term is turned on
   Number of AuxJ basis functions       .... 916
   RIJ-COSX (HFX calculated with COS-X)).... on


General Settings:
 Integral files         IntName         .... 45Dihydropyrene_spectra
 Hartree-Fock type      HFTyp           .... RHF
 Total Charge           Charge          ....    0
 Multiplicity           Mult            ....    1
 Number of Electrons    NEL             ....  108
 Basis Dimension        Dim             ....  424
 Nuclear Repulsion      ENuc            ....    997.5287531826 Eh

Convergence Acceleration:
 DIIS                   CNVDIIS         .... on
   Start iteration      DIISMaxIt       ....    12
   Startup error        DIISStart       ....  0.200000
   # of expansion vecs  DIISMaxEq       ....     5
   Bias factor          DIISBfac        ....   1.050
   Max. coefficient     DIISMaxC        ....  10.000
 Trust-Rad. Augm. Hess. CNVTRAH         .... auto
   Auto Start mean grad. ratio tolernc. ....  1.125000
   Auto Start start iteration           ....    20
   Auto Start num. interpolation iter.  ....    10
   Max. Number of Micro iterations      ....    16
   Max. Number of Macro iterations      .... Maxiter - #DIIS iter
   Number of Davidson start vectors     ....     2
   Converg. threshold I  (grad. norm)   ....   5.000e-05
   Converg. threshold II (energy diff.) ....   1.000e-06
   Grad. Scal. Fac. for Micro threshold ....   0.100
   Minimum threshold for Micro iter.    ....   0.010
   NR start threshold (gradient norm)   ....   0.001
   Initial trust radius                 ....   0.400
   Minimum AH scaling param. (alpha)    ....   1.000
   Maximum AH scaling param. (alpha)    .... 1000.000
   Orbital update algorithm             .... Taylor
   White noise on init. David. guess    .... on
   Maximum white noise                  ....   0.010
   Quad. conv. algorithm                .... NR
 SOSCF                  CNVSOSCF        .... on
   Start iteration      SOSCFMaxIt      ....   150
   Startup grad/error   SOSCFStart      ....  0.003300
 Level Shifting         CNVShift        .... on
   Level shift para.    LevelShift      ....    0.2500
   Turn off err/grad.   ShiftErr        ....    0.0010
 Zerner damping         CNVZerner       .... off
 Static damping         CNVDamp         .... on
   Fraction old density DampFac         ....    0.7000
   Max. Damping (<1)    DampMax         ....    0.9800
   Min. Damping (>=0)   DampMin         ....    0.0000
   Turn off err/grad.   DampErr         ....    0.1000
 Fernandez-Rico         CNVRico         .... off

SCF Procedure:
 Maximum # iterations   MaxIter         ....   125
 SCF integral mode      SCFMode         .... Direct
   Integral package                     .... SHARK and LIBINT hybrid scheme
 Reset frequency        DirectResetFreq ....    20
 Integral Threshold     Thresh          ....  1.000e-10 Eh
 Primitive CutOff       TCut            ....  1.000e-11 Eh

Convergence Tolerance:
 Convergence Check Mode ConvCheckMode   .... Total+1el-Energy
 Convergence forced     ConvForced      .... 1
 Energy Change          TolE            ....  1.000e-06 Eh
 1-El. energy change                    ....  1.000e-03 Eh
 Orbital Gradient       TolG            ....  5.000e-05
 Orbital Rotation angle TolX            ....  5.000e-05
 DIIS Error             TolErr          ....  1.000e-06


Diagonalization of the overlap matrix:
Smallest eigenvalue                        ... 2.483e-08
Time for diagonalization                   ...    0.016 sec
Threshold for overlap eigenvalues          ... 1.000e-08
Number of eigenvalues below threshold      ... 0
Time for construction of square roots      ...    0.030 sec
Total time needed                          ...    0.047 sec

Time for model grid setup =    0.202 sec

------------------------------
INITIAL GUESS: MODEL POTENTIAL
------------------------------
Loading Hartree-Fock densities                     ... done
Calculating cut-offs                               ... done
Initializing the effective Hamiltonian             ... done
Setting up the integral package (SHARK)            ... done
Starting the Coulomb interaction                   ... done (   0.2 sec)
Reading the grid                                   ... done
Mapping shells                                     ... done
Starting the XC term evaluation                    ... done (   0.2 sec)
  promolecular density results
     # of electrons  =    107.994588651
     EX              =    -85.892381384
     EC              =     -3.630028162
     EX+EC           =    -89.522409546
Transforming the Hamiltonian                       ... done (   0.0 sec)
Diagonalizing the Hamiltonian                      ... done (   0.0 sec)
Back transforming the eigenvectors                 ... done (   0.0 sec)
Now organizing SCF variables                       ... done
                      ------------------
                      INITIAL GUESS DONE (   0.7 sec)
                      ------------------
-------------------
DFT GRID GENERATION
-------------------

General Integration Accuracy     IntAcc      ... 4.388
Radial Grid Type                 RadialGrid  ... OptM3 with GC (2021)
Angular Grid (max. ang.)         AngularGrid ... 4 (Lebedev-302)
Angular grid pruning method      GridPruning ... 4 (adaptive)
Weight generation scheme         WeightScheme... Becke
Basis function cutoff            BFCut       ... 1.0000e-10
Integration weight cutoff        WCut        ... 1.0000e-14
Angular grids for H and He will be reduced by one unit
Partially contracted basis set               ... off
Rotationally invariant grid construction     ... off

Total number of grid points                  ...   137086
Total number of batches                      ...     2156
Average number of points per batch           ...       63
Average number of grid points per atom       ...     4896
Time for grid setup =    0.830 sec

--------------------
COSX GRID GENERATION
--------------------

GRIDX 1
-------
General Integration Accuracy     IntAcc      ... 3.816
Radial Grid Type                 RadialGrid  ... OptM3 with GC (2021)
Angular Grid (max. ang.)         AngularGrid ... 1 (Lebedev-50)
Angular grid pruning method      GridPruning ... 4 (adaptive)
Weight generation scheme         WeightScheme... Becke
Basis function cutoff            BFCut       ... 1.0000e-10
Integration weight cutoff        WCut        ... 1.0000e-14
Angular grids for H and He will be reduced by one unit
Partially contracted basis set               ... on
Rotationally invariant grid construction     ... off

Total number of grid points                  ...    17473
Total number of batches                      ...      290
Average number of points per batch           ...       60
Average number of grid points per atom       ...      624
UseSFitting                                  ... on

GRIDX 2
-------
General Integration Accuracy     IntAcc      ... 4.020
Radial Grid Type                 RadialGrid  ... OptM3 with GC (2021)
Angular Grid (max. ang.)         AngularGrid ... 2 (Lebedev-110)
Angular grid pruning method      GridPruning ... 4 (adaptive)
Weight generation scheme         WeightScheme... Becke
Basis function cutoff            BFCut       ... 1.0000e-10
Integration weight cutoff        WCut        ... 1.0000e-14
Angular grids for H and He will be reduced by one unit
Partially contracted basis set               ... on
Rotationally invariant grid construction     ... off

Total number of grid points                  ...    40970
Total number of batches                      ...      657
Average number of points per batch           ...       62
Average number of grid points per atom       ...     1463
UseSFitting                                  ... on

GRIDX 3
-------
General Integration Accuracy     IntAcc      ... 4.338
Radial Grid Type                 RadialGrid  ... OptM3 with GC (2021)
Angular Grid (max. ang.)         AngularGrid ... 3 (Lebedev-194)
Angular grid pruning method      GridPruning ... 4 (adaptive)
Weight generation scheme         WeightScheme... Becke
Basis function cutoff            BFCut       ... 1.0000e-10
Integration weight cutoff        WCut        ... 1.0000e-14
Angular grids for H and He will be reduced by one unit
Partially contracted basis set               ... on
Rotationally invariant grid construction     ... off

Total number of grid points                  ...    88614
Total number of batches                      ...     1401
Average number of points per batch           ...       63
Average number of grid points per atom       ...     3165
UseSFitting                                  ... on

Time for X-Grid setup             =    1.125 sec

--------------
SCF ITERATIONS
--------------
ITER       Energy         Delta-E        Max-DP      RMS-DP      [F,P]     Damp
               ***  Starting incremental Fock matrix formation  ***
  0   -616.3857718521   0.00000000000078.83097512  0.62708859  0.1532169 0.7000
  1   -616.5320489329  -0.14627708077414.41550217  0.13319885  0.0831514 0.7000
                               ***Turning on DIIS***
  2   -616.5996193437  -0.06757041083962.30586241  0.65394992  0.0365655 0.0000
  3   -616.6946143588  -0.09499501504480.77782627  0.73104093  0.0438707 0.0000
  4   -616.7194147026  -0.02480034382791.19519804  0.87895274  0.0072975 0.0000
                      *** Initiating the SOSCF procedure ***
                           *** Shutting down DIIS ***
                      *** Re-Reading the Fockian *** 
                      *** Removing any level shift *** 
ITER      Energy       Delta-E        Grad      Rot      Max-DP    RMS-DP
  5   -616.72034801  -0.0009333119  0.000574  0.000574 104.427353  0.798513
               *** Restarting incremental Fock matrix formation ***
  6   -616.72039257  -0.0000445530  0.000499  0.002300 102.013887  0.692215
  7   -616.72037675   0.0000158130  0.000953  0.001823 103.154222  0.967424
  8   -616.72038838  -0.0000116250  0.000426  0.001116 92.036577  1.204644
  9   -616.72038598   0.0000024000  0.000782  0.000577 97.092740  0.867793
 10   -616.72039227  -0.0000062863  0.001684  0.482682 5029326.393152 54303.063116
 11   -613.37833070   3.3420615689  0.235266  0.480523 1508586.368077 16288.652461
 12   -614.66978481  -1.2914541115  0.124452  1.771524 1045493.531564 9784.597841
 13   -614.43865599   0.2311288185  0.073516  0.653995 2581607.340746 25922.412321

          ************************************************************
          *                     SERIOUS PROBLEM IN SOSCF             *
          *                     ------------------------             *
          *                  LARGE STEP WAS ABOUT TO BE TAKEN        *
          *                         ABORTING THE RUN                 *
          ************************************************************
              ***Rediagonalizing the Fockian in SOSCF/NRSCF***

TRAH GRIDX
----------

General Integration Accuracy     IntAcc      ... 3.067
Radial Grid Type                 RadialGrid  ... OptM3 with GC (2021)
Angular Grid (max. ang.)         AngularGrid ... 1 (Lebedev-50)
Angular grid pruning method      GridPruning ... 4 (adaptive)
Weight generation scheme         WeightScheme... Becke
Basis function cutoff            BFCut       ... 1.0000e-10
Integration weight cutoff        WCut        ... 1.0000e-14
Angular grids for H and He will be reduced by one unit
Partially contracted basis set               ... on
Rotationally invariant grid construction     ... off

Total number of grid points                  ...     9261
Total number of batches                      ...      158
Average number of points per batch           ...       58
Average number of grid points per atom       ...      331


TRAH GRID
---------

General Integration Accuracy     IntAcc      ... 3.467
Radial Grid Type                 RadialGrid  ... OptM3 with GC (2021)
Angular Grid (max. ang.)         AngularGrid ... 1 (Lebedev-50)
Angular grid pruning method      GridPruning ... 4 (adaptive)
Weight generation scheme         WeightScheme... Becke
Basis function cutoff            BFCut       ... 1.0000e-10
Integration weight cutoff        WCut        ... 1.0000e-14
Angular grids for H and He will be reduced by one unit
Partially contracted basis set               ... off
Rotationally invariant grid construction     ... off

Total number of grid points                  ...    20325
Total number of batches                      ...      330
Average number of points per batch           ...       61
Average number of grid points per atom       ...      726

 --------------------------------------------------------------------------------------------
   Iter.        energy            ||Error||_2        Shift      TRadius  Mac/Mic        Rej.
 --------------------------------------------------------------------------------------------
WARNING: 418 diagonal Hessian elements are negative!
    0       -614.039288644995     5.495294e+00                     0.400 (TRAH MAcro)   No
WARNING : negative HOMO - LUMO gap : -0.749372
    0     dE    -1.428415e+00     4.709679e+00    -4.1239e+00      0.400 (TRAH MIcro)
    0     dE    -1.505933e+00     2.405181e+00    -7.5168e+00      0.380 (TRAH MIcro)
    0     dE    -1.577161e+00     5.770561e-01    -7.7615e+00      0.388 (TRAH MIcro)
    0     dE    -1.575150e+00     2.199127e-01    -7.7908e+00      0.385 (TRAH MIcro)
    0     dE    -1.573856e+00     1.303714e-01    -7.7938e+00      0.384 (TRAH MIcro)
    0     dE    -1.572725e+00     5.091885e-02    -7.7951e+00      0.384 (TRAH MIcro)
    0     dE    -1.572544e+00     1.576205e-02    -7.7954e+00      0.384 (TRAH MIcro)
    0     dE    -1.572581e+00     1.008042e-02    -7.7955e+00      0.384 (TRAH MIcro)
    0     dE    -1.572541e+00     5.688342e-03    -7.7955e+00      0.384 (TRAH MIcro)
WARNING: 57 diagonal Hessian elements are negative!
    1       -615.583837752597     2.776064e+00                     0.480 (TRAH MAcro)   No
WARNING : negative HOMO - LUMO gap : -0.327103
    1     dE    -5.405102e-01     1.409862e+00    -9.6448e-01      0.348 (TRAH MIcro)
    1     dE    -8.260200e-01     3.411071e-01    -2.6564e+00      0.480 (TRAH MIcro)
    1     dE    -8.343971e-01     1.304322e-01    -2.7803e+00      0.480 (TRAH MIcro)
    1     dE    -8.352484e-01     4.004676e-02    -2.7822e+00      0.480 (TRAH MIcro)
    1     dE    -8.353276e-01     1.274233e-02    -2.7781e+00      0.480 (TRAH MIcro)
    1     dE    -8.353416e-01     3.983160e-03    -2.7763e+00      0.480 (TRAH MIcro)
WARNING: 3 diagonal Hessian elements are negative!
    2       -616.357243806441     9.584130e-01                     0.576 (TRAH MAcro)   No
WARNING : negative HOMO - LUMO gap : -0.048409
    2     dE    -1.382774e-01     1.086565e+00    -2.5774e-01      0.270 (TRAH MIcro)
    2     dE    -3.521958e-01     4.316200e-01    -8.7132e-01      0.576 (TRAH MIcro)
    2     dE    -3.671536e-01     2.297043e-01    -9.5583e-01      0.576 (TRAH MIcro)
    2     dE    -3.720828e-01     5.729756e-02    -9.9635e-01      0.576 (TRAH MIcro)
    2     dE    -3.722770e-01     1.342179e-02    -9.9882e-01      0.576 (TRAH MIcro)
    2     dE    -3.722854e-01     3.603040e-03    -9.9925e-01      0.576 (TRAH MIcro)
    3       -616.666288300485     3.798575e-01                     0.691 (TRAH MAcro)   No
    3     dE    -1.639611e-02     6.961729e-01    -3.2548e-02      0.087 (TRAH MIcro)
    3     dE    -5.013585e-02     4.716233e-01    -9.1550e-02      0.309 (TRAH MIcro)
    3     dE    -5.745564e-02     7.177425e-02    -1.0229e-01      0.351 (TRAH MIcro)
    3     dE    -5.786471e-02     2.083072e-02    -1.0282e-01      0.354 (TRAH MIcro)
    3     dE    -5.790411e-02     6.991883e-03    -1.0285e-01      0.355 (TRAH MIcro)
    4       -616.719322774549     1.213618e-01                     0.829 (TRAH MAcro)   No
    4     dE    -7.884193e-04     1.410838e-01    -1.5766e-03      0.013 (TRAH MIcro)
    4     dE    -1.064807e-03     2.041155e-02    -2.1287e-03      0.021 (TRAH MIcro)
    4     dE    -1.086795e-03     5.402127e-03    -2.1726e-03      0.021 (TRAH MIcro)
    5       -616.720409669734     5.414771e-03                     0.995 (TRAH MAcro)   No
    5     dE    -7.702252e-07     1.023587e-02    -1.5405e-06      0.000 (TRAH MIcro)
    5     dE    -4.227950e-06     3.257960e-03    -8.4559e-06      0.002 (TRAH MIcro)
    5     dE    -5.230139e-06     1.172410e-03    -1.0460e-05      0.003 (TRAH MIcro)
    5     dE    -5.285259e-06     2.872561e-04    -1.0570e-05      0.003 (TRAH MIcro)
    6       -616.720414858675     2.863050e-04                           (NR   MAcro)
    6     dE    -5.674553e-09     1.180024e-04                           (NR   MIcro)
    6     dE    -6.886659e-09     4.331679e-05                           (NR   MIcro)
    6     dE    -7.054568e-09     1.642568e-05                           (NR   MIcro)
    6     dE    -7.082046e-09     5.599517e-06                           (NR   MIcro)
    6     dE    -7.084041e-09     2.114056e-06                           (NR   MIcro)
    7       -616.720414869199     4.600256e-06                           (NR   MAcro)

               *****************************************************
               *                     SUCCESS                       *
               *           SCF CONVERGED AFTER  60 CYCLES          *
               *****************************************************


------------------------------------------------------------------------------
                          SCF STABILITY ANALYSIS                              
------------------------------------------------------------------------------


---------------
TD-DFT XC SETUP
---------------

DFT calculation                         ... on
Name of the grid file                   ... 45Dihydropyrene_spectra.grid.tmp
Exchange functional (SCF)               ... B88
Exchange functional (TD-DFT)            ... B88
   X-Alpha parameter    XAlpha (SCF)    ...  0.666667
   X-Alpha parameter    XAlpha (TD-DFT) ...  0.666667
   Becke's b parameter  XBeta (SCF)     ...  0.004200
   Becke's b parameter  XBeta (TD-DFT)  ...  0.004200
Correlation functional (SCF)            ... LYP
Correlation functional (TD-DFT)         ... LYP
 LDA part of GGA corr.  LDAOpt (SCF)    ... VWN-5
 LDA part of GGA corr.  LDAOpt (TD-DFT) ... VWN-5
Hybrid DFT                              ... on
   Exchange mixing (SCF)                ...  0.200
   Exchange mixing (TD-DFT)             ...  0.200
   GGA exch. scaling(SCF)               ...  0.720
   GGA exch. scaling (TD-DFT)           ...  0.720
   GGA corr. scaling (SCF)              ...  0.810
   GGA corr. scaling (TD-DFT)           ...  0.810

Electron density on the grid   ... found on disk
Building xc-kernel on the grid ... done
                    *** TD-DFT CALCULATION INITIALIZED ***

                       ****Iteration    0****

   Memory handling for direct AO based CIS:
   Memory per vector needed      ...     5 MB
   Memory needed                 ...    32 MB
   Memory available              ...  5000 MB
   Number of vectors per batch   ...   932
   Number of batches             ...     1
   Time for densities:     0.027
   Time for XC-Integration:     4.791
   Time for K (COSX):    40.404
   Time for Sigma-Completion:     0.054
   Lowest Energy          :     0.102119671623
   Maximum Energy change  :     0.127774854864 (vector 2)
   Maximum residual norm  :     0.007553513278

                       ****Iteration    1****
   Time for densities:     0.020
   Time for XC-Integration:     2.864
   Time for K (COSX):    38.468
   Time for Sigma-Completion:     0.025
   Lowest Energy          :     0.067015036594
   Maximum Energy change  :     0.035104635029 (vector 0)
   Maximum residual norm  :     0.000974992832

                       ****Iteration    2****
   Time for densities:     0.013
   Time for XC-Integration:     2.883
   Time for K (COSX):    38.380
   Time for Sigma-Completion:     0.031
   Lowest Energy          :     0.066075033832
   Maximum Energy change  :     0.008459633350 (vector 1)
   Maximum residual norm  :     0.000449644215

                       ****Iteration    3****
   Time for densities:     0.015
   Time for XC-Integration:     3.075
   Time for K (COSX):    38.398
   Time for Sigma-Completion:     0.024
   Lowest Energy          :     0.066019002752
   Maximum Energy change  :     0.000924692116 (vector 1)
   Maximum residual norm  :     0.000031187979

                       ****Iteration    4****
   Time for densities:     0.015
   Time for XC-Integration:     3.105
   Time for K (COSX):    38.299
   Time for Sigma-Completion:     0.026
   Lowest Energy          :     0.066017018490
   Maximum Energy change  :     0.000074108276 (vector 2)
   Maximum residual norm  :     0.000002114709

      *** CONVERGENCE OF RESIDUAL NORM REACHED ***

----------------------------- 
SCF STABILITY ANALYSIS RESULT 
----------------------------- 

RHF/RKS->UHF/UKS - triplet - external

   Root    Eigenvalue (au) 
     0       0.066017 
     1       0.098324 
     2       0.110002 

Stability Analysis indicates a stable HF/KS wave function.


Total time for performing the stability analysis:   211.571sec

Old exchange energy                            =    -17.473121390 Eh
New exchange energy                            =    -17.473160077 Eh
Exchange energy change after final integration =     -0.000038687 Eh
Total energy after final integration           =   -616.720453556 Eh
Final COS-X integration done in                =    11.832 sec

----------------
TOTAL SCF ENERGY
----------------

Total Energy       :         -616.72045356 Eh          -16781.81671 eV

Components:
Nuclear Repulsion  :          997.52875318 Eh           27144.13736 eV
Electronic Energy  :        -1614.24920674 Eh          -43925.95407 eV
One Electron Energy:        -2811.95033127 Eh          -76517.05857 eV
Two Electron Energy:         1197.70112453 Eh           32591.10450 eV
Max COSX asymmetry :            0.00022054 Eh               0.00600 eV

Virial components:
Potential Energy   :        -1231.03423967 Eh          -33498.14467 eV
Kinetic Energy     :          614.31378611 Eh           16716.32796 eV
Virial Ratio       :            2.00391765


DFT components:
N(Alpha)           :       53.999980418083 electrons
N(Beta)            :       53.999980418083 electrons
N(Total)           :      107.999960836166 electrons
E(X)               :      -69.378214354212 Eh       
E(C)               :       -4.281833091319 Eh       
E(XC)              :      -73.660047445531 Eh       
DFET-embed. en.    :        0.000000000000 Eh       

---------------
SCF CONVERGENCE
---------------

  Last Energy change         ...   -1.0524e-08  Tolerance :   1.0000e-06
  Last Orbital Gradient      ...    4.6003e-06  Tolerance :   5.0000e-05
  Last Orbital Rotation      ...    7.6531e-05

             **** THE GBW FILE WAS UPDATED (45Dihydropyrene_spectra.gbw) ****
             **** DENSITY 45Dihydropyrene_spectra.scfp WAS UPDATED ****
             **** ENERGY FILE WAS UPDATED (45Dihydropyrene_spectra.en.tmp) ****
             **** THE GBW FILE WAS UPDATED (45Dihydropyrene_spectra.gbw) ****
             **** DENSITY 45Dihydropyrene_spectra.scfp WAS UPDATED ****
----------------
ORBITAL ENERGIES
----------------

  NO   OCC          E(Eh)            E(eV) 
   0   2.0000     -10.182959      -277.0924 
   1   2.0000     -10.182955      -277.0923 
   2   2.0000     -10.182010      -277.0666 
   3   2.0000     -10.181947      -277.0649 
   4   2.0000     -10.181522      -277.0533 
   5   2.0000     -10.181216      -277.0450 
   6   2.0000     -10.175587      -276.8918 
   7   2.0000     -10.175286      -276.8836 
   8   2.0000     -10.175059      -276.8774 
   9   2.0000     -10.174881      -276.8726 
  10   2.0000     -10.173753      -276.8419 
  11   2.0000     -10.173751      -276.8418 
  12   2.0000     -10.172179      -276.7991 
  13   2.0000     -10.172178      -276.7990 
  14   2.0000     -10.171288      -276.7748 
  15   2.0000     -10.171286      -276.7748 
  16   2.0000      -0.891576       -24.2610 
  17   2.0000      -0.852193       -23.1893 
  18   2.0000      -0.828090       -22.5335 
  19   2.0000      -0.795965       -21.6593 
  20   2.0000      -0.765834       -20.8394 
  21   2.0000      -0.749031       -20.3822 
  22   2.0000      -0.730784       -19.8857 
  23   2.0000      -0.709599       -19.3092 
  24   2.0000      -0.638602       -17.3772 
  25   2.0000      -0.626560       -17.0496 
  26   2.0000      -0.626008       -17.0345 
  27   2.0000      -0.607022       -16.5179 
  28   2.0000      -0.555720       -15.1219 
  29   2.0000      -0.527323       -14.3492 
  30   2.0000      -0.522315       -14.2129 
  31   2.0000      -0.498408       -13.5624 
  32   2.0000      -0.481772       -13.1097 
  33   2.0000      -0.477746       -13.0001 
  34   2.0000      -0.461445       -12.5566 
  35   2.0000      -0.434113       -11.8128 
  36   2.0000      -0.432107       -11.7582 
  37   2.0000      -0.426309       -11.6005 
  38   2.0000      -0.412210       -11.2168 
  39   2.0000      -0.404238       -10.9999 
  40   2.0000      -0.395345       -10.7579 
  41   2.0000      -0.390673       -10.6307 
  42   2.0000      -0.386764       -10.5244 
  43   2.0000      -0.381181       -10.3725 
  44   2.0000      -0.365249        -9.9389 
  45   2.0000      -0.355914        -9.6849 
  46   2.0000      -0.346129        -9.4186 
  47   2.0000      -0.322156        -8.7663 
  48   2.0000      -0.321200        -8.7403 
  49   2.0000      -0.311074        -8.4648 
  50   2.0000      -0.283947        -7.7266 
  51   2.0000      -0.260036        -7.0759 
  52   2.0000      -0.222196        -6.0463 
  53   2.0000      -0.215925        -5.8756 
  54   0.0000      -0.046246        -1.2584 
  55   0.0000      -0.038940        -1.0596 
  56   0.0000      -0.007565        -0.2059 
  57   0.0000       0.001497         0.0407 
  58   0.0000       0.011051         0.3007 
  59   0.0000       0.011613         0.3160 
  60   0.0000       0.019754         0.5375 
  61   0.0000       0.026857         0.7308 
  62   0.0000       0.028400         0.7728 
  63   0.0000       0.036475         0.9925 
  64   0.0000       0.039656         1.0791 
  65   0.0000       0.047328         1.2879 
  66   0.0000       0.048107         1.3091 
  67   0.0000       0.055580         1.5124 
  68   0.0000       0.065303         1.7770 
  69   0.0000       0.065506         1.7825 
  70   0.0000       0.072997         1.9863 
  71   0.0000       0.073760         2.0071 
  72   0.0000       0.077456         2.1077 
  73   0.0000       0.079112         2.1528 
  74   0.0000       0.084983         2.3125 
  75   0.0000       0.097270         2.6468 
  76   0.0000       0.102631         2.7927 
  77   0.0000       0.106990         2.9114 
  78   0.0000       0.108283         2.9465 
  79   0.0000       0.118005         3.2111 
  80   0.0000       0.123070         3.3489 
  81   0.0000       0.125991         3.4284 
  82   0.0000       0.127706         3.4751 
  83   0.0000       0.132977         3.6185 
  84   0.0000       0.134243         3.6529 
  85   0.0000       0.140539         3.8243 
  86   0.0000       0.146975         3.9994 
  87   0.0000       0.152264         4.1433 
  88   0.0000       0.156019         4.2455 
  89   0.0000       0.156817         4.2672 
  90   0.0000       0.159680         4.3451 
  91   0.0000       0.165640         4.5073 
  92   0.0000       0.166891         4.5413 
  93   0.0000       0.167641         4.5617 
  94   0.0000       0.175195         4.7673 
  95   0.0000       0.176626         4.8062 
  96   0.0000       0.180619         4.9149 
  97   0.0000       0.187974         5.1150 
  98   0.0000       0.188654         5.1335 
  99   0.0000       0.197332         5.3697 
 100   0.0000       0.198593         5.4040 
 101   0.0000       0.199996         5.4422 
 102   0.0000       0.206886         5.6296 
 103   0.0000       0.207766         5.6536 
 104   0.0000       0.209397         5.6980 
 105   0.0000       0.212781         5.7901 
 106   0.0000       0.217409         5.9160 
 107   0.0000       0.219011         5.9596 
 108   0.0000       0.221487         6.0270 
 109   0.0000       0.225424         6.1341 
 110   0.0000       0.225641         6.1400 
 111   0.0000       0.230359         6.2684 
 112   0.0000       0.239590         6.5196 
 113   0.0000       0.240172         6.5354 
 114   0.0000       0.244240         6.6461 
 115   0.0000       0.246391         6.7046 
 116   0.0000       0.247452         6.7335 
 117   0.0000       0.254133         6.9153 
 118   0.0000       0.259626         7.0648 
 119   0.0000       0.260587         7.0909 
 120   0.0000       0.262992         7.1564 
 121   0.0000       0.267086         7.2678 
 122   0.0000       0.276456         7.5228 
 123   0.0000       0.282018         7.6741 
 124   0.0000       0.285737         7.7753 
 125   0.0000       0.287090         7.8121 
 126   0.0000       0.290456         7.9037 
 127   0.0000       0.292174         7.9505 
 128   0.0000       0.298107         8.1119 
 129   0.0000       0.302414         8.2291 
 130   0.0000       0.308362         8.3910 
 131   0.0000       0.313671         8.5354 
 132   0.0000       0.318116         8.6564 
 133   0.0000       0.324949         8.8423 
 134   0.0000       0.334232         9.0949 
 135   0.0000       0.336835         9.1658 
 136   0.0000       0.354852         9.6560 
 137   0.0000       0.355865         9.6836 
 138   0.0000       0.360163         9.8005 
 139   0.0000       0.367764        10.0074 
 140   0.0000       0.375785        10.2256 
 141   0.0000       0.377346        10.2681 
 142   0.0000       0.383167        10.4265 
 143   0.0000       0.393908        10.7188 
 144   0.0000       0.400526        10.8989 
 145   0.0000       0.411420        11.1953 
 146   0.0000       0.418908        11.3991 
 147   0.0000       0.423227        11.5166 
 148   0.0000       0.438564        11.9339 
 149   0.0000       0.445675        12.1274 
 150   0.0000       0.461266        12.5517 
 151   0.0000       0.462905        12.5963 
 152   0.0000       0.469506        12.7759 
 153   0.0000       0.486424        13.2363 
 154   0.0000       0.503532        13.7018 
 155   0.0000       0.517293        14.0763 
 156   0.0000       0.526540        14.3279 
 157   0.0000       0.534152        14.5350 
 158   0.0000       0.542633        14.7658 
 159   0.0000       0.550623        14.9832 
 160   0.0000       0.552286        15.0285 
 161   0.0000       0.557988        15.1836 
 162   0.0000       0.559936        15.2366 
 163   0.0000       0.565381        15.3848 
 164   0.0000       0.573098        15.5948 
 165   0.0000       0.578723        15.7479 
 166   0.0000       0.589504        16.0412 
 167   0.0000       0.593178        16.1412 
 168   0.0000       0.600902        16.3514 
 169   0.0000       0.606897        16.5145 
 170   0.0000       0.616206        16.7678 
 171   0.0000       0.622007        16.9257 
 172   0.0000       0.624372        16.9900 
 173   0.0000       0.630319        17.1519 
 174   0.0000       0.633267        17.2321 
 175   0.0000       0.645177        17.5562 
 176   0.0000       0.650053        17.6888 
 177   0.0000       0.653991        17.7960 
 178   0.0000       0.663605        18.0576 
 179   0.0000       0.667341        18.1593 
 180   0.0000       0.673616        18.3300 
 181   0.0000       0.687123        18.6976 
 182   0.0000       0.688694        18.7403 
 183   0.0000       0.699296        19.0288 
 184   0.0000       0.704990        19.1838 
 185   0.0000       0.705154        19.1882 
 186   0.0000       0.718062        19.5395 
 187   0.0000       0.718608        19.5543 
 188   0.0000       0.725736        19.7483 
 189   0.0000       0.736711        20.0469 
 190   0.0000       0.739570        20.1247 
 191   0.0000       0.747046        20.3282 
 192   0.0000       0.755052        20.5460 
 193   0.0000       0.760834        20.7033 
 194   0.0000       0.767998        20.8983 
 195   0.0000       0.771642        20.9974 
 196   0.0000       0.773863        21.0579 
 197   0.0000       0.775817        21.1111 
 198   0.0000       0.794269        21.6132 
 199   0.0000       0.807228        21.9658 
 200   0.0000       0.839627        22.8474 
 201   0.0000       0.840276        22.8651 
 202   0.0000       0.843827        22.9617 
 203   0.0000       0.865751        23.5583 
 204   0.0000       0.887966        24.1628 
 205   0.0000       0.892800        24.2943 
 206   0.0000       0.908188        24.7130 
 207   0.0000       0.909459        24.7476 
 208   0.0000       0.923110        25.1191 
 209   0.0000       0.927705        25.2441 
 210   0.0000       0.941954        25.6319 
 211   0.0000       0.943053        25.6618 
 212   0.0000       0.953066        25.9342 
 213   0.0000       0.956420        26.0255 
 214   0.0000       0.966666        26.3043 
 215   0.0000       0.971259        26.4293 
 216   0.0000       0.979120        26.6432 
 217   0.0000       0.983008        26.7490 
 218   0.0000       0.990186        26.9443 
 219   0.0000       1.009113        27.4594 
 220   0.0000       1.011569        27.5262 
 221   0.0000       1.020147        27.7596 
 222   0.0000       1.030574        28.0433 
 223   0.0000       1.045515        28.4499 
 224   0.0000       1.049493        28.5582 
 225   0.0000       1.070589        29.1322 
 226   0.0000       1.074077        29.2271 
 227   0.0000       1.080864        29.4118 
 228   0.0000       1.091451        29.6999 
 229   0.0000       1.102614        30.0036 
 230   0.0000       1.119773        30.4706 
 231   0.0000       1.129052        30.7231 
 232   0.0000       1.136744        30.9324 
 233   0.0000       1.156140        31.4602 
 234   0.0000       1.156545        31.4712 
 235   0.0000       1.170989        31.8642 
 236   0.0000       1.181377        32.1469 
 237   0.0000       1.190029        32.3823 
 238   0.0000       1.230397        33.4808 
 239   0.0000       1.273135        34.6438 
 240   0.0000       1.304064        35.4854 
 241   0.0000       1.339840        36.4589 
 242   0.0000       1.378760        37.5180 
 243   0.0000       1.400919        38.1209 
 244   0.0000       1.415683        38.5227 
 245   0.0000       1.430032        38.9132 
 246   0.0000       1.446904        39.3723 
 247   0.0000       1.467221        39.9251 
 248   0.0000       1.472107        40.0581 
 249   0.0000       1.490215        40.5508 
 250   0.0000       1.491387        40.5827 
 251   0.0000       1.499881        40.8138 
 252   0.0000       1.517312        41.2882 
 253   0.0000       1.520235        41.3677 
 254   0.0000       1.529119        41.6094 
 255   0.0000       1.536436        41.8086 
 256   0.0000       1.546354        42.0784 
 257   0.0000       1.556850        42.3641 
 258   0.0000       1.570851        42.7450 
 259   0.0000       1.572942        42.8019 
 260   0.0000       1.579364        42.9767 
 261   0.0000       1.581881        43.0452 
 262   0.0000       1.597221        43.4626 
 263   0.0000       1.614107        43.9221 
 264   0.0000       1.625107        44.2214 
 265   0.0000       1.627097        44.2756 
 266   0.0000       1.632763        44.4297 
 267   0.0000       1.652997        44.9803 
 268   0.0000       1.676076        45.6083 
 269   0.0000       1.677772        45.6545 
 270   0.0000       1.696515        46.1645 
 271   0.0000       1.701294        46.2946 
 272   0.0000       1.718795        46.7708 
 273   0.0000       1.734258        47.1916 
 274   0.0000       1.736685        47.2576 
 275   0.0000       1.742202        47.4077 
 276   0.0000       1.759169        47.8694 
 277   0.0000       1.759317        47.8734 
 278   0.0000       1.767169        48.0871 
 279   0.0000       1.768771        48.1307 
 280   0.0000       1.801508        49.0215 
 281   0.0000       1.824857        49.6569 
 282   0.0000       1.829753        49.7901 
 283   0.0000       1.849868        50.3375 
 284   0.0000       1.858411        50.5699 
 285   0.0000       1.882701        51.2309 
 286   0.0000       1.884881        51.2902 
 287   0.0000       1.900895        51.7260 
 288   0.0000       1.910831        51.9964 
 289   0.0000       1.915696        52.1287 
 290   0.0000       1.935277        52.6616 
 291   0.0000       1.936373        52.6914 
 292   0.0000       1.938108        52.7386 
 293   0.0000       1.951362        53.0993 
 294   0.0000       1.962783        53.4100 
 295   0.0000       1.974414        53.7265 
 296   0.0000       1.984801        54.0092 
 297   0.0000       1.987714        54.0884 
 298   0.0000       2.011240        54.7286 
 299   0.0000       2.013111        54.7795 
 300   0.0000       2.042698        55.5846 
 301   0.0000       2.045742        55.6675 
 302   0.0000       2.055682        55.9379 
 303   0.0000       2.068909        56.2979 
 304   0.0000       2.099108        57.1196 
 305   0.0000       2.099725        57.1364 
 306   0.0000       2.110913        57.4409 
 307   0.0000       2.148134        58.4537 
 308   0.0000       2.148615        58.4668 
 309   0.0000       2.155236        58.6469 
 310   0.0000       2.164827        58.9079 
 311   0.0000       2.173473        59.1432 
 312   0.0000       2.222079        60.4659 
 313   0.0000       2.224512        60.5320 
 314   0.0000       2.233463        60.7756 
 315   0.0000       2.253653        61.3250 
 316   0.0000       2.263894        61.6037 
 317   0.0000       2.305840        62.7451 
 318   0.0000       2.309078        62.8332 
 319   0.0000       2.350823        63.9691 
 320   0.0000       2.362732        64.2932 
 321   0.0000       2.408352        65.5346 
 322   0.0000       2.423084        65.9355 
 323   0.0000       2.444050        66.5060 
 324   0.0000       2.447209        66.5919 
 325   0.0000       2.450755        66.6884 
 326   0.0000       2.468331        67.1667 
 327   0.0000       2.474426        67.3326 
 328   0.0000       2.500195        68.0338 
 329   0.0000       2.535338        68.9901 
 330   0.0000       2.567690        69.8704 
 331   0.0000       2.570662        69.9513 
 332   0.0000       2.604407        70.8695 
 333   0.0000       2.607646        70.9577 
 334   0.0000       2.650942        72.1358 
 335   0.0000       2.655259        72.2533 
 336   0.0000       2.670462        72.6670 
 337   0.0000       2.685252        73.0694 
 338   0.0000       2.714042        73.8529 
 339   0.0000       2.717235        73.9397 
 340   0.0000       2.727513        74.2194 
 341   0.0000       2.735258        74.4301 
 342   0.0000       2.738907        74.5294 
 343   0.0000       2.741129        74.5899 
 344   0.0000       2.747498        74.7632 
 345   0.0000       2.755623        74.9843 
 346   0.0000       2.762045        75.1591 
 347   0.0000       2.771535        75.4173 
 348   0.0000       2.782441        75.7141 
 349   0.0000       2.782519        75.7162 
 350   0.0000       2.790043        75.9209 
 351   0.0000       2.794100        76.0313 
 352   0.0000       2.809108        76.4397 
 353   0.0000       2.826627        76.9164 
 354   0.0000       2.830305        77.0165 
 355   0.0000       2.843688        77.3807 
 356   0.0000       2.850409        77.5636 
 357   0.0000       2.860437        77.8364 
 358   0.0000       2.866833        78.0105 
 359   0.0000       2.875234        78.2391 
 360   0.0000       2.901650        78.9579 
 361   0.0000       2.921342        79.4937 
 362   0.0000       2.933767        79.8319 
 363   0.0000       2.946377        80.1750 
 364   0.0000       2.947039        80.1930 
 365   0.0000       2.971957        80.8711 
 366   0.0000       3.015989        82.0692 
 367   0.0000       3.064291        83.3836 
 368   0.0000       3.065163        83.4073 
 369   0.0000       3.120273        84.9070 
 370   0.0000       3.136260        85.3420 
 371   0.0000       3.143033        85.5263 
 372   0.0000       3.237278        88.0908 
 373   0.0000       3.241906        88.2167 
 374   0.0000       3.264470        88.8308 
 375   0.0000       3.265157        88.8494 
 376   0.0000       3.352654        91.2304 
 377   0.0000       3.371402        91.7405 
 378   0.0000       3.375889        91.8626 
 379   0.0000       3.408511        92.7503 
 380   0.0000       3.412587        92.8612 
 381   0.0000       3.429083        93.3101 
 382   0.0000       3.454953        94.0141 
 383   0.0000       3.486124        94.8623 
 384   0.0000       3.519977        95.7834 
 385   0.0000       3.561275        96.9072 
 386   0.0000       3.584186        97.5307 
 387   0.0000       3.619404        98.4890 
 388   0.0000       3.646778        99.2339 
 389   0.0000       3.657053        99.5135 
 390   0.0000       3.729990       101.4982 
 391   0.0000       3.785278       103.0026 
 392   0.0000       3.820603       103.9639 
 393   0.0000       3.856218       104.9330 
 394   0.0000       3.932324       107.0040 
 395   0.0000       4.050684       110.2247 
 396   0.0000       4.061534       110.5200 
 397   0.0000       4.097511       111.4990 
 398   0.0000       4.119485       112.0969 
 399   0.0000       4.141073       112.6843 
 400   0.0000       4.176041       113.6358 
 401   0.0000       4.295540       116.8876 
 402   0.0000       4.337605       118.0322 
 403   0.0000       4.427143       120.4687 
 404   0.0000       4.561715       124.1306 
 405   0.0000       4.837944       131.6472 
 406   0.0000       4.849523       131.9622 
 407   0.0000       4.864700       132.3752 
 408   0.0000      23.486854       639.1098 
 409   0.0000      23.720342       645.4633 
 410   0.0000      23.853095       649.0757 
 411   0.0000      23.877528       649.7406 
 412   0.0000      23.939624       651.4303 
 413   0.0000      23.950374       651.7228 
 414   0.0000      23.961896       652.0363 
 415   0.0000      23.977372       652.4574 
 416   0.0000      23.984413       652.6490 
 417   0.0000      24.030753       653.9100 
 418   0.0000      24.046318       654.3336 
 419   0.0000      24.112898       656.1453 
 420   0.0000      24.116690       656.2485 
 421   0.0000      24.191473       658.2834 
 422   0.0000      24.192001       658.2978 
 423   0.0000      24.215346       658.9331 

                    ********************************
                    * MULLIKEN POPULATION ANALYSIS *
                    ********************************

-----------------------
MULLIKEN ATOMIC CHARGES
-----------------------
   0 C :   -0.387012
   1 C :    0.021364
   2 C :   -0.785204
   3 C :    1.020188
   4 C :   -0.181561
   5 C :   -0.189351
   6 C :    1.002508
   7 C :   -0.757690
   8 C :    0.008566
   9 C :   -0.359307
  10 C :    1.364135
  11 C :   -0.250246
  12 C :   -0.230633
  13 C :    1.380534
  14 C :   -1.627641
  15 C :   -1.619325
  16 H :    0.121455
  17 H :    0.122931
  18 H :    0.117003
  19 H :    0.173859
  20 H :    0.138487
  21 H :    0.138498
  22 H :    0.173896
  23 H :    0.116868
  24 H :    0.122969
  25 H :    0.121271
  26 H :    0.121740
  27 H :    0.121699
Sum of atomic charges:   -0.0000000

--------------------------------
MULLIKEN REDUCED ORBITAL CHARGES
--------------------------------
  0 C s       :     3.631605  s :     3.631605
      pz      :     1.016207  p :     2.697238
      px      :     0.781693
      py      :     0.899338
      dz2     :     0.003943  d :     0.058170
      dxz     :     0.008746
      dyz     :     0.005784
      dx2y2   :     0.019555
      dxy     :     0.020142
  1 C s       :     3.059724  s :     3.059724
      pz      :     0.979117  p :     2.859605
      px      :     1.018302
      py      :     0.862186
      dz2     :     0.003956  d :     0.059307
      dxz     :     0.003618
      dyz     :     0.011606
      dx2y2   :     0.023059
      dxy     :     0.017068
  2 C s       :     3.908009  s :     3.908009
      pz      :     1.030960  p :     2.818897
      px      :     0.970411
      py      :     0.817525
      dz2     :     0.004013  d :     0.058298
      dxz     :     0.009183
      dyz     :     0.005301
      dx2y2   :     0.018217
      dxy     :     0.021585
  3 C s       :     1.982878  s :     1.982878
      pz      :     0.791540  p :     2.924615
      px      :     0.401440
      py      :     1.731636
      dz2     :     0.004905  d :     0.072319
      dxz     :     0.011773
      dyz     :     0.009112
      dx2y2   :     0.022016
      dxy     :     0.024513
  4 C s       :     3.076030  s :     3.076030
      pz      :     1.057417  p :     3.045861
      px      :     0.982495
      py      :     1.005949
      dz2     :     0.017289  d :     0.059669
      dxz     :     0.009171
      dyz     :     0.005918
      dx2y2   :     0.010664
      dxy     :     0.016628
  5 C s       :     3.083114  s :     3.083114
      pz      :     1.057872  p :     3.046568
      px      :     0.983318
      py      :     1.005378
      dz2     :     0.017263  d :     0.059669
      dxz     :     0.009175
      dyz     :     0.005942
      dx2y2   :     0.010664
      dxy     :     0.016625
  6 C s       :     2.000574  s :     2.000574
      pz      :     0.794856  p :     2.924598
      px      :     0.412534
      py      :     1.717208
      dz2     :     0.004890  d :     0.072320
      dxz     :     0.011763
      dyz     :     0.009119
      dx2y2   :     0.022025
      dxy     :     0.024523
  7 C s       :     3.876360  s :     3.876360
      pz      :     1.030862  p :     2.823031
      px      :     0.973014
      py      :     0.819155
      dz2     :     0.004010  d :     0.058299
      dxz     :     0.009178
      dyz     :     0.005296
      dx2y2   :     0.018225
      dxy     :     0.021590
  8 C s       :     3.074816  s :     3.074816
      pz      :     0.979101  p :     2.857311
      px      :     1.016329
      py      :     0.861880
      dz2     :     0.003948  d :     0.059307
      dxz     :     0.003613
      dyz     :     0.011610
      dx2y2   :     0.023063
      dxy     :     0.017073
  9 C s       :     3.598281  s :     3.598281
      pz      :     1.016540  p :     2.702856
      px      :     0.785894
      py      :     0.900422
      dz2     :     0.003943  d :     0.058170
      dxz     :     0.008742
      dyz     :     0.005781
      dx2y2   :     0.019556
      dxy     :     0.020148
 10 C s       :     1.168491  s :     1.168491
      pz      :     0.905921  p :     3.393299
      px      :     1.008176
      py      :     1.479202
      dz2     :     0.004408  d :     0.074075
      dxz     :     0.011271
      dyz     :     0.010005
      dx2y2   :     0.023495
      dxy     :     0.024896
 11 C s       :     3.525262  s :     3.525262
      pz      :     1.007768  p :     2.666471
      px      :     0.732263
      py      :     0.926440
      dz2     :     0.004004  d :     0.058513
      dxz     :     0.010351
      dyz     :     0.004611
      dx2y2   :     0.016601
      dxy     :     0.022947
 12 C s       :     3.506664  s :     3.506664
      pz      :     1.007940  p :     2.665457
      px      :     0.730875
      py      :     0.926642
      dz2     :     0.004001  d :     0.058513
      dxz     :     0.010353
      dyz     :     0.004613
      dx2y2   :     0.016602
      dxy     :     0.022945
 13 C s       :     1.158525  s :     1.158525
      pz      :     0.907424  p :     3.386867
      px      :     0.991315
      py      :     1.488128
      dz2     :     0.004410  d :     0.074075
      dxz     :     0.011272
      dyz     :     0.010005
      dx2y2   :     0.023493
      dxy     :     0.024894
 14 C s       :     4.240223  s :     4.240223
      pz      :     0.901227  p :     3.315732
      px      :     0.517026
      py      :     1.897479
      dz2     :     0.004544  d :     0.071686
      dxz     :     0.010407
      dyz     :     0.009840
      dx2y2   :     0.024038
      dxy     :     0.022857
 15 C s       :     4.244830  s :     4.244830
      pz      :     0.906094  p :     3.302809
      px      :     0.497412
      py      :     1.899303
      dz2     :     0.004538  d :     0.071685
      dxz     :     0.010401
      dyz     :     0.009841
      dx2y2   :     0.024042
      dxy     :     0.022863
 16 H s       :     0.853242  s :     0.853242
      pz      :     0.006307  p :     0.025303
      px      :     0.006999
      py      :     0.011998
 17 H s       :     0.851909  s :     0.851909
      pz      :     0.006140  p :     0.025160
      px      :     0.014631
      py      :     0.004389
 18 H s       :     0.857725  s :     0.857725
      pz      :     0.006322  p :     0.025271
      px      :     0.007093
      py      :     0.011857
 19 H s       :     0.803897  s :     0.803897
      pz      :     0.012764  p :     0.022244
      px      :     0.004774
      py      :     0.004706
 20 H s       :     0.838937  s :     0.838937
      pz      :     0.005451  p :     0.022576
      px      :     0.006931
      py      :     0.010194
 21 H s       :     0.838926  s :     0.838926
      pz      :     0.005462  p :     0.022576
      px      :     0.006929
      py      :     0.010185
 22 H s       :     0.803861  s :     0.803861
      pz      :     0.012760  p :     0.022243
      px      :     0.004774
      py      :     0.004709
 23 H s       :     0.857860  s :     0.857860
      pz      :     0.006319  p :     0.025272
      px      :     0.007092
      py      :     0.011861
 24 H s       :     0.851871  s :     0.851871
      pz      :     0.006140  p :     0.025160
      px      :     0.014631
      py      :     0.004388
 25 H s       :     0.853425  s :     0.853425
      pz      :     0.006304  p :     0.025304
[...]
 761  106995.7     93.5     -0.09152   0.02138  -0.07320   0.02069
 762  107064.9     93.4    -15.26134  -0.04672  -0.19612  -0.06876
 763  107102.8     93.4      7.72003  -0.09580   0.00049  -0.05230
 764  107118.6     93.4      1.59853   0.30986  -0.11134   0.13424
 765  107146.2     93.3     -4.31139   0.06007   0.22935  -0.03925
 766  107176.9     93.3     -5.24943   0.01448   0.08468   0.33298
 767  107204.9     93.3     -0.44825  -0.04565  -0.14625   0.02115
 768  107210.7     93.3      3.29982   0.14997  -0.00686  -0.21540
 769  107295.5     93.2    -12.01408  -0.01198  -0.21318  -0.03590
 770  107317.8     93.2      6.57764   0.07657   0.00876  -0.16144
 771  107377.5     93.1      2.32951  -0.04972   0.16703  -0.24211
 772  107380.4     93.1     -0.01682  -0.12823  -0.11099  -0.36749
 773  107467.2     93.1     -2.73928   0.02582  -0.43108   0.01793
 774  107496.3     93.0    -17.10491  -0.07518  -0.33295  -0.04456
 775  107502.9     93.0    -13.42653   0.10413  -0.26192   0.11978
 776  107519.8     93.0      2.67207   0.10980  -0.00841   0.06962
 777  107541.9     93.0     -0.34899  -0.02693  -0.02405   0.02254
 778  107572.2     93.0      1.33848  -0.03090  -0.03394   0.07427
 779  107605.2     92.9      0.56809  -0.00700  -0.06640  -0.00681
 780  107621.7     92.9      2.53782   0.01949  -0.00861   0.08539
 781  107660.0     92.9      0.07494  -0.02481   0.01967  -0.03860
 782  107672.8     92.9      2.00679   0.05697   0.02270   0.25483
 783  107728.8     92.8     12.38574   0.01444  -0.13326   0.04121
 784  107750.5     92.8     -4.14051  -0.05378   0.29206  -0.01818
 785  107756.8     92.8    -22.29514  -0.23071  -0.07232  -0.01457
 786  107792.7     92.8     -4.30672  -0.02589  -0.04603   0.04468
 787  107875.0     92.7      8.56500  -0.09861   0.06734   0.25744
 788  107888.1     92.7     15.20079  -0.00788  -0.29628   0.08058
 789  107936.0     92.6      5.30382  -0.00942  -0.19046   0.12500
 790  107943.9     92.6     -8.38117   0.00836  -0.12956  -0.38120
 791  108009.0     92.6    -22.33100  -0.00905  -0.29857   0.02151
 792  108050.4     92.5      3.58448  -0.02595   0.00850  -0.26281
 793  108084.1     92.5     -2.84264   0.01035   0.05928   0.00305
 794  108140.8     92.5     -1.86202   0.04078   0.01407   0.05069
 795  108181.3     92.4      1.81041   0.02901  -0.06621  -0.02018
 796  108197.5     92.4     -2.17097  -0.05874  -0.07390   0.10396
 797  108245.6     92.4      0.13143   0.04415  -0.03601   0.01504
 798  108271.4     92.4     11.01773   0.17377   0.00443  -0.14820
 799  108287.2     92.3     -5.97038   0.02537  -0.21436  -0.10427
 800  108334.7     92.3     -2.08648   0.00104  -0.06635   0.01885
 801  108432.4     92.2      1.72509   0.01871   0.07652  -0.05074
 802  108449.8     92.2     -3.53815  -0.00148   0.04325   0.14754
 803  108508.8     92.2      0.86360   0.13495   0.00499  -0.17836
 804  108539.1     92.1     10.59678   0.07117   0.02078  -0.18844
 805  108578.1     92.1    -11.76123   0.03569  -0.24605  -0.06543
 806  108606.1     92.1     -1.91666   0.07759   0.08167  -0.24097
 807  108664.2     92.0    -12.11211   0.00663  -0.23071  -0.10352
 808  108737.1     92.0      2.21431  -0.02983  -0.00873   0.00000
 809  108764.7     91.9    -14.25614  -0.00602   0.13518  -0.00402
 810  108814.4     91.9      0.47262  -0.01004  -0.00350  -0.12371
 811  108856.9     91.9      1.00285  -0.00240   0.03972  -0.01499
 812  108892.2     91.8     -0.51385  -0.00413  -0.00197  -0.15450
 813  108925.4     91.8      0.43526  -0.04372   0.00097   0.43273
 814  108961.2     91.8      0.70168  -0.05989   0.03535   0.24847
 815  108995.8     91.7      7.41903   0.09113  -0.07503  -0.05294
 816  109004.9     91.7     16.74905  -0.08659  -0.11817   0.11756
 817  109086.2     91.7    -21.43413  -0.20536   0.02970  -1.14537
 818  109094.4     91.7    -10.45463  -0.05156  -0.08733  -0.06698
 819  109163.7     91.6     -0.83000  -0.05269   0.00163  -0.10803
 820  109176.0     91.6     -0.20178   0.04197  -0.00403   0.05271
 821  109248.6     91.5     -4.13380  -0.02986   0.00796  -0.14648
 822  109255.6     91.5     -6.51816   0.01947   0.01816   0.15574
 823  109333.7     91.5     -3.05181  -0.00064  -0.00076  -0.07296
 824  109357.9     91.4     -4.61756   0.17129  -0.00918   0.37423
 825  109378.8     91.4     -0.22187   0.04156   0.00615   0.11964
 826  109438.8     91.4     16.29008   0.02333   0.13901   0.06139
 827  109514.6     91.3     -4.63548  -0.19437   0.01175  -0.09843
 828  109572.0     91.3     52.87398  -0.01414  -0.33831   0.03943
 829  109624.9     91.2      0.65001  -0.01369  -0.18393  -0.03689
 830  109650.7     91.2     -3.99911   0.09102  -0.04413  -0.21543
 831  109684.8     91.2     11.39105   0.10313  -0.02285   0.10372
 832  109711.7     91.1     -0.11961   0.03571  -0.03101  -0.01166
 833  109754.3     91.1     -2.64755  -0.01069  -0.02928  -0.02975
 834  109830.8     91.0     -0.82714   0.02620   0.11432   0.08082
 835  109835.0     91.0     -1.71444   0.07329  -0.10320   0.27227
 836  109864.5     91.0     -5.75062  -0.04880   0.00352  -0.14339
 837  109967.1     90.9      0.06362   0.02021  -0.02351   0.01719
 838  109999.3     90.9      0.21372   0.01246   0.06056  -0.00700
 839  110016.4     90.9    -10.04758  -0.11938  -0.05714  -0.44619
 840  110051.7     90.9     -6.97022   0.01300  -0.25576  -0.00509
 841  110115.8     90.8     -4.36699  -0.03675   0.03391  -0.46397
 842  110174.4     90.8      1.49509   0.00783  -0.09320  -0.03826
 843  110255.5     90.7     -2.91041  -0.00966   0.05606  -0.07073
 844  110280.9     90.7     -1.29161   0.04423   0.03678  -0.00704
 845  110349.5     90.6      3.08301  -0.11136  -0.00932   0.14168
 846  110366.8     90.6      0.09694  -0.04464  -0.08987   0.03959
 847  110399.4     90.6    -17.66223  -0.01914   0.17576  -0.00580
 848  110429.6     90.6      9.51243   0.00255  -0.12420  -0.00566
 849  110472.4     90.5      1.93635   0.01039   0.03946   0.02099
 850  110508.2     90.5      5.58488   0.15214   0.00246   0.10990
 851  110535.9     90.5    -11.37220  -0.02240   0.00636  -0.30394
 852  110581.5     90.4      3.24949  -0.03101  -0.10509   0.06007
 853  110609.1     90.4    -15.66069   0.26564   0.03437  -0.31954
 854  110626.2     90.4      2.51752  -0.10497  -0.00908  -0.02595
 855  110661.0     90.4     -4.57123  -0.05289   0.28597   0.05562
 856  110693.0     90.3     10.66877  -0.01094   0.14829  -0.10798
 857  110720.1     90.3      5.37378  -0.01210  -0.04880  -0.11010
 858  110806.0     90.2      1.06097   0.00646   0.03479   0.03298
 859  110819.7     90.2     -0.50457   0.06967   0.08132  -0.18224
 860  110829.0     90.2      2.16994  -0.05399   0.11629   0.17218
 861  110893.4     90.2      3.13769   0.00920   0.11271   0.32320
 862  110923.1     90.2     17.38380  -0.05051   0.09802  -0.53701
 863  110929.5     90.1     12.45788   0.05536   0.02606   0.19275
 864  110956.4     90.1    -23.09717  -0.01969  -0.02645  -0.66088
 865  110998.0     90.1      2.60482  -0.09475   0.00111  -0.09387
 866  111029.8     90.1     -2.08087   0.01265  -0.04422  -0.00805
 867  111091.9     90.0     -0.93380  -0.08397  -0.00690   0.12020
 868  111135.8     90.0     -1.80987  -0.06466  -0.03199   0.42384
 869  111150.1     90.0      3.25629   0.02230  -0.14390  -0.22124
 870  111169.2     90.0      2.31074   0.00974   0.08374  -0.01771
 871  111184.3     89.9     18.13149  -0.00101  -0.18193   0.06586
 872  111295.1     89.9      4.52355   0.05582   0.00366  -0.20524
 873  111337.7     89.8      2.73300  -0.02239   0.05559   0.01517
 874  111406.3     89.8      0.72924  -0.02329   0.00693  -0.06739
 875  111420.0     89.8      0.33786  -0.05169  -0.01588  -0.07711
 876  111494.6     89.7     -0.87828  -0.01467  -0.16743  -0.13228
 877  111505.2     89.7      7.45848   0.06741  -0.06966   0.19722
 878  111549.9     89.6     -2.96618   0.06011   0.01174  -0.14433
 879  111601.1     89.6     -0.87924  -0.16524  -0.01755   0.07255
 880  111639.7     89.6      2.41918  -0.06459   0.01018   0.14415
 881  111652.3     89.6     10.39992   0.03817  -0.01876  -0.26394
 882  111674.7     89.5      5.42371  -0.09243  -0.06848  -0.05735
 883  111695.7     89.5      1.81920  -0.05349   0.11039  -0.08254
 884  111759.9     89.5     -0.88648   0.05019  -0.03269   0.02696
 885  111788.5     89.5     -4.28755  -0.00301   0.01062   0.23652
 886  111818.8     89.4      4.17033   0.16097   0.03236  -0.41811
 887  111834.7     89.4     -3.24447  -0.01211  -0.04753  -0.01565
 888  111868.2     89.4    -10.63347   0.10920   0.01205   0.13981
 889  111920.5     89.3     -3.95010   0.01178   0.01070  -0.33736
 890  111964.1     89.3     -0.14249  -0.02341   0.05238   0.00212
 891  111991.3     89.3     -0.75074  -0.00014   0.01507  -0.13605
 892  112050.6     89.2      1.85360   0.00383   0.08771  -0.09808
 893  112061.2     89.2    -18.12467   0.03540   0.00992   0.75393
 894  112098.8     89.2     -8.56670   0.01823  -0.10179  -0.08767
 895  112118.4     89.2     -0.16322  -0.08405   0.03235   0.29464
 896  112130.3     89.2      1.49936  -0.06218  -0.04708   0.18111
 897  112164.8     89.2      1.32822   0.18719   0.00380   0.27742
 898  112187.8     89.1      1.25727   0.03058  -0.10069   0.09498
 899  112298.3     89.0      5.17920   0.11192  -0.08551   0.42564
 900  112306.1     89.0      0.76163  -0.11973  -0.10683  -0.43014
 901  112329.3     89.0    -10.43962  -0.05536  -0.01874  -0.22177
 902  112358.3     89.0    -15.77032   0.03066  -0.21341   0.02469
 903  112373.5     89.0     -1.02319   0.03646   0.05294   0.01416
 904  112426.4     88.9     11.56877   0.08675   0.03737   0.18120
 905  112493.1     88.9     16.47233  -0.22530  -0.01230  -0.30897
 906  112549.7     88.8      3.35378  -0.02846  -0.08615  -0.10129
 907  112570.0     88.8     12.56562   0.13694  -0.00168  -0.36867
 908  112623.0     88.8      0.12676  -0.02523  -0.01815  -0.10858
 909  112649.3     88.8     -8.03547   0.01934   0.00511   0.15694
 910  112672.5     88.8     -2.50457  -0.05753  -0.00892  -0.11673
 911  112689.3     88.7     15.86439   0.00370  -0.18980   0.07068
 912  112721.2     88.7     -0.83837  -0.00417  -0.08984   0.01750
 913  112810.3     88.6     -2.67765   0.03502  -0.03446  -0.01959
 914  112815.0     88.6     -3.05753   0.03654   0.03993   0.00672
 915  112862.7     88.6     11.26982  -0.21511   0.09103   0.06371
 916  112882.8     88.6     -2.60715  -0.10376  -0.23936  -0.01950
 917  112908.7     88.6     -3.77782  -0.09803   0.03720  -0.00032
 918  112954.0     88.5     -2.44505  -0.00064  -0.00664   0.26229
 919  113010.2     88.5     -2.49252  -0.01481   0.04318  -0.04303
 920  113076.1     88.4     -0.22780  -0.07444   0.00603   0.02231
 921  113109.8     88.4      1.97296  -0.01394  -0.09877   0.02895
 922  113166.7     88.4      7.60700   0.09463  -0.02450   0.52853
 923  113210.4     88.3      8.35462  -0.10058   0.02247   0.30266
 924  113223.9     88.3     -0.99516  -0.00166   0.06374   0.02898
 925  113249.3     88.3     -4.33088   0.00832  -0.23419  -0.06099
 926  113303.6     88.3     -2.03898   0.04918   0.02153  -0.13818
 927  113317.1     88.2     -2.69339  -0.10450  -0.05895   0.35383
 928  113440.5     88.2      5.34345   0.06024  -0.11536   0.03817
 929  113453.6     88.1      5.11256   0.01554   0.12112   0.01296
 930  113499.1     88.1     -9.01062  -0.07162  -0.00584  -0.10681
 931  113503.3     88.1     -1.62159  -0.02735   0.01786   0.18074
 932  113562.8     88.1     -0.55181  -0.00784   0.01619   0.03397
 933  113572.1     88.0     -1.37126  -0.03768  -0.03336  -0.06320
 934  113607.7     88.0     -1.60711   0.07896  -0.14053   0.02754
 935  113623.8     88.0     11.14906  -0.11807  -0.04880  -0.25078
 936  113696.0     88.0     -3.01174  -0.01681   0.13575   0.04349
 937  113727.2     87.9      4.57899  -0.02059   0.14301  -0.00475
 938  113754.1     87.9      3.45559   0.22726   0.02082  -0.27823
 939  113787.3     87.9     -0.30740   0.01066   0.02383   0.07195
 940  113816.7     87.9      7.01780   0.00207   0.04228   0.03280
 941  113865.1     87.8    -14.65227  -0.01500   0.01861  -0.42081
 942  113868.4     87.8    -20.46129   0.00839  -0.00682  -0.51820
 943  113906.7     87.8      8.59451   0.14843   0.03238  -0.12368
 944  113925.3     87.8     -0.95989   0.01320   0.05563  -0.01735
 945  113998.6     87.7     -8.37474   0.01444   0.01614  -0.49539
 946  114036.7     87.7     -3.17061  -0.07949   0.08153   0.10975
 947  114041.1     87.7     12.44794  -0.12905  -0.00269   0.06248
 948  114058.0     87.7      1.53598   0.07545   0.04358   0.01301
 949  114117.3     87.6      2.06046   0.08053  -0.01225   0.23729
 950  114123.2     87.6     -0.37852  -0.02339   0.03679  -0.02432
 951  114164.2     87.6      3.24483   0.14316  -0.02054  -0.04855
 952  114182.6     87.6      4.42561   0.06173   0.10846   0.04593
 953  114222.8     87.5     -0.04010  -0.05281   0.05958  -0.13515
 954  114277.7     87.5      1.10093  -0.01299   0.00085  -0.23658
 955  114311.8     87.5     -8.20329  -0.17078   0.04003   0.26120
 956  114334.5     87.5     -9.83447  -0.16113  -0.08597  -0.10734
 957  114361.2     87.4     -2.89144   0.07097   0.03358   0.10630
 958  114379.6     87.4    -10.35945   0.12433  -0.05485   0.16415
 959  114419.1     87.4      2.16555   0.03779  -0.02878  -0.16122
 960  114433.1     87.4     -2.59338   0.00653   0.07319  -0.05169
 961  114440.7     87.4     -0.04705   0.08535   0.02712  -0.17458
 962  114529.7     87.3      2.44153  -0.07240   0.16717  -0.08754
 963  114554.0     87.3    -10.85100   0.10280   0.04402   0.31521
 964  114599.2     87.3    -12.49110   0.20858   0.01022   0.06676
 965  114619.1     87.2     -8.46963  -0.09719   0.07799   0.02040
 966  114633.3     87.2     -8.53646   0.08872   0.08931  -0.02596
 967  114672.0     87.2      7.88986   0.01544   0.08326  -0.02057
 968  114715.8     87.2     -5.23041  -0.02406  -0.09293   0.01771
 969  114811.8     87.1    -13.96833   0.15927  -0.00736   0.19217
 970  114907.7     87.0      0.53902   0.00678  -0.01953  -0.04532
 971  114945.2     87.0      7.71693  -0.03725  -0.01509   0.39567
 972  114964.8     87.0      1.83494  -0.00561  -0.11724  -0.09790
 973  115010.2     86.9     -8.88364   0.02721  -0.03248   0.12472
 974  115019.8     86.9     -4.36585  -0.00911  -0.01156  -0.08563
 975  115097.4     86.9      1.04452  -0.00112   0.01641   0.01299
 976  115155.6     86.8      5.60484   0.00021   0.10516  -0.01836
 977  115198.7     86.8    -11.13198   0.00634  -0.11860   0.02972
 978  115199.7     86.8     21.20753   0.10297   0.00619   0.22840
 979  115241.0     86.8     -1.08683   0.00086   0.00602  -0.08216
 980  115271.6     86.8      0.22155  -0.00769   0.04952  -0.01719
 981  115317.4     86.7      0.67698   0.00503  -0.01920   0.12399
 982  115353.4     86.7      4.59415  -0.03252  -0.09008   0.04828
 983  115365.1     86.7     -4.53508  -0.04748   0.07322   0.18838
 984  115393.3     86.7     -8.83870   0.02594   0.10773   0.00245
 985  115457.3     86.6     -0.18835   0.11823   0.00038   0.06394
 986  115477.3     86.6      0.53038  -0.24905   0.02243  -0.05168
 987  115501.0     86.6     -4.16713   0.07806   0.03875  -0.20444
 988  115559.3     86.5      1.02902   0.00978  -0.02892  -0.03332
 989  115613.4     86.5    -20.90654   0.03869  -0.14391  -0.05403
 990  115656.6     86.5     -1.60684  -0.00645   0.07966  -0.01628
 991  115671.6     86.5     -0.10436   0.01005   0.01437   0.01608
 992  115700.0     86.4      3.00778   0.01225   0.14964  -0.03699
 993  115786.4     86.4     -2.31494  -0.13896   0.07487  -0.00520
 994  115802.7     86.4     -0.63853   0.23159   0.06831   0.07051
 995  115856.4     86.3     16.49550   0.01188  -0.16793  -0.08296
 996  115881.7     86.3     -2.80095   0.02819  -0.06105   0.23127
 997  115908.9     86.3     -0.86957   0.01249   0.01053   0.24550
 998  115975.1     86.2     -0.35979  -0.13946  -0.02130   0.17415
 999  116003.4     86.2     11.00134  -0.00222   0.14177   0.02151
 1000  116030.8     86.2     -1.25706   0.00696   0.06545  -0.05251

Total run time:    10492.218 sec

           *** ORCA-CIS/TD-DFT FINISHED WITHOUT ERROR ***

Maximum memory used throughout the entire CIS-calculation: 4466.0 MB

-----------------------
CIS/TD-DFT TOTAL ENERGY
-----------------------

    E(SCF)  =   -616.720453556 Eh
    DE(CIS) =      0.143304609 Eh (Root  1)
    ----------------------------- ---------
    E(tot)  =   -616.577148947 Eh



-------------------------------------------------------------------------------
                          DFT DISPERSION CORRECTION                            
                                                                               
                                 DFTD4 V2.5                                    
-------------------------------------------------------------------------------
The B3LYP functional is recognized
Active option DFTDOPT                   ...         5   

Starting D4
-------------------------   ----------------
Dispersion correction           -0.065901967
-------------------------   ----------------


-------------------------   --------------------
FINAL SINGLE POINT ENERGY      -616.643050914390
-------------------------   --------------------


                            ***************************************
                            *     ORCA property calculations      *
                            ***************************************

                                    ---------------------
                                    Active property flags
                                    ---------------------
   (+) Dipole Moment


------------------------------------------------------------------------------
                       ORCA ELECTRIC PROPERTIES CALCULATION
------------------------------------------------------------------------------

Dipole Moment Calculation                       ... on
Quadrupole Moment Calculation                   ... off
Polarizability Calculation                      ... off
GBWName                                         ... 45Dihydropyrene_spectra.gbw
Electron density                                ... 45Dihydropyrene_spectra.scfp
The origin for moment calculation is the CENTER OF MASS  = ( 0.000406, -0.004142 -0.001522)

-------------
DIPOLE MOMENT
-------------
                                X             Y             Z
Electronic contribution:      0.00040       4.18491      -0.00585
Nuclear contribution   :     -0.00043      -4.42865       0.00620
                        -----------------------------------------
Total Dipole Moment    :     -0.00003      -0.24374       0.00035
                        -----------------------------------------
Magnitude (a.u.)       :      0.24374
Magnitude (Debye)      :      0.61955



--------------------
Rotational spectrum 
--------------------
 
Rotational constants in cm-1:     0.032336     0.018307     0.011824 
Rotational constants in MHz :   969.401291   548.838383   354.467732 

 Dipole components along the rotational axes: 
x,y,z [a.u.] :     0.000004    -0.243744     0.000018 
x,y,z [Debye]:     0.000010    -0.619547     0.000045 

 

Timings for individual modules:

Sum of individual times         ...    10959.752 sec (= 182.663 min)
GTO integral calculation        ...        0.540 sec (=   0.009 min)   0.0 %
SCF iterations                  ...      466.823 sec (=   7.780 min)   4.3 %
CIS module                      ...    10492.389 sec (= 174.873 min)  95.7 %
                             ****ORCA TERMINATED NORMALLY****
TOTAL RUN TIME: 0 days 3 hours 2 minutes 40 seconds 450 msec
