
                                 *****************
                                 * O   R   C   A *
                                 *****************

                                            #,                                       
                                            ###                                      
                                            ####                                     
                                            #####                                    
                                            ######                                   
                                           ########,                                 
                                     ,,################,,,,,                         
                               ,,#################################,,                 
                          ,,##########################################,,             
                       ,#########################################, ''#####,          
                    ,#############################################,,   '####,        
                  ,##################################################,,,,####,       
                ,###########''''           ''''###############################       
              ,#####''   ,,,,##########,,,,          '''####'''          '####       
            ,##' ,,,,###########################,,,                        '##       
           ' ,,###''''                  '''############,,,                           
         ,,##''                                '''############,,,,        ,,,,,,###''
      ,#''                                            '''#######################'''  
     '                                                          ''''####''''         
             ,#######,   #######,   ,#######,      ##                                
            ,#'     '#,  ##    ##  ,#'     '#,    #''#        ######   ,####,        
            ##       ##  ##   ,#'  ##            #'  '#       #        #'  '#        
            ##       ##  #######   ##           ,######,      #####,   #    #        
            '#,     ,#'  ##    ##  '#,     ,#' ,#      #,         ##   #,  ,#        
             '#######'   ##     ##  '#######'  #'      '#     #####' # '####'        



                  #######################################################
                  #                        -***-                        #
                  #          Department of theory and spectroscopy      #
                  #    Directorship and core code : Frank Neese         #
                  #        Max Planck Institute fuer Kohlenforschung    #
                  #                Kaiser Wilhelm Platz 1               #
                  #                 D-45470 Muelheim/Ruhr               #
                  #                      Germany                        #
                  #                                                     #
                  #                  All rights reserved                #
                  #                        -***-                        #
                  #######################################################



                         Program Version 5.0.4 -  RELEASE  -

 With contributions from (in alphabetic order):
   Daniel Aravena         : Magnetic Suceptibility
   Michael Atanasov       : Ab Initio Ligand Field Theory (pilot matlab implementation)
   Alexander A. Auer      : GIAO ZORA, VPT2 properties, NMR spectrum
   Ute Becker             : Parallelization
   Giovanni Bistoni       : ED, misc. LED, open-shell LED, HFLD
   Martin Brehm           : Molecular dynamics
   Dmytro Bykov           : SCF Hessian
   Vijay G. Chilkuri      : MRCI spin determinant printing, contributions to CSF-ICE
   Dipayan Datta          : RHF DLPNO-CCSD density
   Achintya Kumar Dutta   : EOM-CC, STEOM-CC
   Dmitry Ganyushin       : Spin-Orbit,Spin-Spin,Magnetic field MRCI
   Miquel Garcia          : C-PCM and meta-GGA Hessian, CC/C-PCM, Gaussian charge scheme
   Yang Guo               : DLPNO-NEVPT2, F12-NEVPT2, CIM, IAO-localization
   Andreas Hansen         : Spin unrestricted coupled pair/coupled cluster methods
   Benjamin Helmich-Paris : MC-RPA, TRAH-SCF, COSX integrals
   Lee Huntington         : MR-EOM, pCC
   Robert Izsak           : Overlap fitted RIJCOSX, COSX-SCS-MP3, EOM
   Marcus Kettner         : VPT2
   Christian Kollmar      : KDIIS, OOCD, Brueckner-CCSD(T), CCSD density, CASPT2, CASPT2-K
   Simone Kossmann        : Meta GGA functionals, TD-DFT gradient, OOMP2, MP2 Hessian
   Martin Krupicka        : Initial AUTO-CI
   Lucas Lang             : DCDCAS
   Marvin Lechner         : AUTO-CI (C++ implementation), FIC-MRCC
   Dagmar Lenk            : GEPOL surface, SMD
   Dimitrios Liakos       : Extrapolation schemes; Compound Job, initial MDCI parallelization
   Dimitrios Manganas     : Further ROCIS development; embedding schemes
   Dimitrios Pantazis     : SARC Basis sets
   Anastasios Papadopoulos: AUTO-CI, single reference methods and gradients
   Taras Petrenko         : DFT Hessian,TD-DFT gradient, ASA, ECA, R-Raman, ABS, FL, XAS/XES, NRVS
   Peter Pinski           : DLPNO-MP2, DLPNO-MP2 Gradient
   Christoph Reimann      : Effective Core Potentials
   Marius Retegan         : Local ZFS, SOC
   Christoph Riplinger    : Optimizer, TS searches, QM/MM, DLPNO-CCSD(T), (RO)-DLPNO pert. Triples
   Tobias Risthaus        : Range-separated hybrids, TD-DFT gradient, RPA, STAB
   Michael Roemelt        : Original ROCIS implementation
   Masaaki Saitow         : Open-shell DLPNO-CCSD energy and density
   Barbara Sandhoefer     : DKH picture change effects
   Avijit Sen             : IP-ROCIS
   Kantharuban Sivalingam : CASSCF convergence, NEVPT2, FIC-MRCI
   Bernardo de Souza      : ESD, SOC TD-DFT
   Georgi Stoychev        : AutoAux, RI-MP2 NMR, DLPNO-MP2 response
   Willem Van den Heuvel  : Paramagnetic NMR
   Boris Wezisla          : Elementary symmetry handling
   Frank Wennmohs         : Technical directorship


 We gratefully acknowledge several colleagues who have allowed us to
 interface, adapt or use parts of their codes:
   Stefan Grimme, W. Hujo, H. Kruse, P. Pracht,  : VdW corrections, initial TS optimization,
                  C. Bannwarth, S. Ehlert          DFT functionals, gCP, sTDA/sTD-DF
   Ed Valeev, F. Pavosevic, A. Kumar             : LibInt (2-el integral package), F12 methods
   Garnet Chan, S. Sharma, J. Yang, R. Olivares  : DMRG
   Ulf Ekstrom                                   : XCFun DFT Library
   Mihaly Kallay                                 : mrcc  (arbitrary order and MRCC methods)
   Jiri Pittner, Ondrej Demel                    : Mk-CCSD
   Frank Weinhold                                : gennbo (NPA and NBO analysis)
   Christopher J. Cramer and Donald G. Truhlar   : smd solvation model
   Lars Goerigk                                  : TD-DFT with DH, B97 family of functionals
   V. Asgeirsson, H. Jonsson                     : NEB implementation
   FAccTs GmbH                                   : IRC, NEB, NEB-TS, DLPNO-Multilevel, CI-OPT
                                                   MM, QMMM, 2- and 3-layer-ONIOM, Crystal-QMMM,
                                                   LR-CPCM, SF, NACMEs, symmetry and pop. for TD-DFT,
                                                   nearIR, NL-DFT gradient (VV10), updates on ESD,
                                                   ML-optimized integration grids
   S Lehtola, MJT Oliveira, MAL Marques          : LibXC Library
   Liviu Ungur et al                             : ANISO software


 Your calculation uses the libint2 library for the computation of 2-el integrals
 For citations please refer to: http://libint.valeyev.net

 Your ORCA version has been built with support for libXC version: 5.1.0
 For citations please refer to: https://tddft.org/programs/libxc/

 This ORCA versions uses:
   CBLAS   interface :  Fast vector & matrix operations
   LAPACKE interface :  Fast linear algebra routines
   Shared memory     :  Shared parallel matrices


Your calculation utilizes the atom-pairwise dispersion correction
based on tight binding partial charges (D4)
Cite in your paper:
E.Caldeweyher, C.Bannwarth, S.Grimme, J.Chem.Phys., (2017), 147, 034112.
E.Caldeweyher, S.Ehlert, A.Hansen, H.Neugebauer, S.Grimme, J.Chem.Phys., (2018), in progress.
   

================================================================================

----- Orbital basis set information -----
Your calculation utilizes the basis: 6-311+G**
   H, Li - Ne  : R. Krishnan, J. S. Binkley, R. Seeger and J. A. Pople, J. Chem. Phys. 72, 650 (1980).
   Na - Ar     : A. D. McLean and G. S. Chandler J. Chem. Phys. 72, 5639, (1980).
   K  - Ca     : J.-P. Blaudeau, M. P. McGrath, L. A. Curtiss and L. Radom, J. Chem. Phys. 107, 5016 (1997).
   Ga - Kr     : L. A. Curtiss, M. P. McGrath, J.-P. Blandeau, N. E. Davis, R. C. Binning and L. Radom, J. Chem. Phys. 103, 6104 (1995).
   Pol./Diff.
   H, Li - Cl  : T. Clark, J. Chandrasekhar and P. v. R. Schleyer, J. Comp. Chem. 4, 294 (1983).
   H - Ne      : M. J. Frisch, J. A. Pople and J. S. Binkley, J. Chem. Phys. 80, 3265 (1984).

----- AuxJ basis set information -----
Your calculation utilizes the auxiliary basis: def2/J
   F. Weigend, Phys. Chem. Chem. Phys. 8, 1057 (2006).

================================================================================
                                        WARNINGS
                       Please study these warnings very carefully!
================================================================================

INFO   : Checking CIS options ...

WARNING: CIS/ROCIS methods need fully converged wavefunctions
  ===> : Setting SCFConvForced true
         You can overwrite this default with %scf ConvForced false 


INFO   : the flag for use of the SHARK integral package has been found!

================================================================================
                                       INPUT FILE
================================================================================
NAME = loss_all_hydrogen_atoms_spectra.inp
|  1> !b3lyp 6-311+g** d4
|  2> 
|  3> %maxcore 5000
|  4> %pal
|  5> nprocs 7
|  6> end
|  7> 
|  8> %tddft
|  9>   nroots 1000
| 10>   end
| 11>   
| 12> * xyz 0 1
| 13>   C   2.38288072553686     -2.80809747759916     -0.00001302540077
| 14>   C   1.32516330375168     -3.43682691343072     -0.00004031875764
| 15>   C   0.03637850692888     -2.92737920851046     -0.00011228563143
| 16>   C   -1.23961610372775     -3.46783781533011     -0.00015224783947
| 17>   C   -2.31327450042929     -2.86678029360698     -0.00021781170688
| 18>   C   -2.51651142666677     -1.49584348010742     -0.00026880134927
| 19>   C   -3.62257798397002     -0.66108838578737     -0.00034246579371
| 20>   C   -3.63823900501084      0.56926916190695     -0.00038071688667
| 21>   C   -2.55300511956863      1.43097374781531     -0.00035936992489
| 22>   C   -2.38262631470241      2.80618797079283     -0.00039557856111
| 23>   C   -1.32503488694916      3.43510132547315     -0.00036830083655
| 24>   C   -0.03620516091945      2.92542379696155     -0.00029702210759
| 25>   C   1.23969493474791      3.46620939789555     -0.00025746463591
| 26>   C   2.31313134376548      2.86473741351239     -0.00019335777360
| 27>   C   2.51655881915042      1.49396297259011     -0.00014157749153
| 28>   C   3.62228368387100      0.65888641979714     -0.00006862548773
| 29>   C   3.63884091640520     -0.57144673123578     -0.00002920861116
| 30>   C   2.55312013727719     -1.43284353955406     -0.00004943542213
| 31>   C   1.25902522523116     -0.70708435707089     -0.00012726574344
| 32>   C   1.24099661834980      0.73608314387196     -0.00017525288871
| 33>   C   -0.01788688159609      1.44212905911229     -0.00024850362741
| 34>   C   -1.25887523040155      0.70514635499832     -0.00028299254142
| 35>   C   -1.24093440900409     -0.73802656077442     -0.00023539263229
| 36>   C   0.01798084671426     -1.44401035254419     -0.00016074638425
| 37> **                         ****END OF INPUT****
================================================================================

                       ****************************
                       * Single Point Calculation *
                       ****************************

---------------------------------
CARTESIAN COORDINATES (ANGSTROEM)
---------------------------------
  C      2.382881   -2.808097   -0.000013
  C      1.325163   -3.436827   -0.000040
  C      0.036379   -2.927379   -0.000112
  C     -1.239616   -3.467838   -0.000152
  C     -2.313275   -2.866780   -0.000218
  C     -2.516511   -1.495843   -0.000269
  C     -3.622578   -0.661088   -0.000342
  C     -3.638239    0.569269   -0.000381
  C     -2.553005    1.430974   -0.000359
  C     -2.382626    2.806188   -0.000396
  C     -1.325035    3.435101   -0.000368
  C     -0.036205    2.925424   -0.000297
  C      1.239695    3.466209   -0.000257
  C      2.313131    2.864737   -0.000193
  C      2.516559    1.493963   -0.000142
  C      3.622284    0.658886   -0.000069
  C      3.638841   -0.571447   -0.000029
  C      2.553120   -1.432844   -0.000049
  C      1.259025   -0.707084   -0.000127
  C      1.240997    0.736083   -0.000175
  C     -0.017887    1.442129   -0.000249
  C     -1.258875    0.705146   -0.000283
  C     -1.240934   -0.738027   -0.000235
  C      0.017981   -1.444010   -0.000161

----------------------------
CARTESIAN COORDINATES (A.U.)
----------------------------
  NO LB      ZA    FRAG     MASS         X           Y           Z
   0 C     6.0000    0    12.011    4.502992   -5.306535   -0.000025
   1 C     6.0000    0    12.011    2.504196   -6.494662   -0.000076
   2 C     6.0000    0    12.011    0.068745   -5.531945   -0.000212
   3 C     6.0000    0    12.011   -2.342535   -6.553264   -0.000288
   4 C     6.0000    0    12.011   -4.371455   -5.417430   -0.000412
   5 C     6.0000    0    12.011   -4.755517   -2.826735   -0.000508
   6 C     6.0000    0    12.011   -6.845680   -1.249276   -0.000647
   7 C     6.0000    0    12.011   -6.875275    1.075763   -0.000719
   8 C     6.0000    0    12.011   -4.824480    2.704148   -0.000679
   9 C     6.0000    0    12.011   -4.502511    5.302927   -0.000748
  10 C     6.0000    0    12.011   -2.503953    6.491401   -0.000696
  11 C     6.0000    0    12.011   -0.068418    5.528250   -0.000561
  12 C     6.0000    0    12.011    2.342684    6.550186   -0.000487
  13 C     6.0000    0    12.011    4.371185    5.413569   -0.000365
  14 C     6.0000    0    12.011    4.755607    2.823181   -0.000268
  15 C     6.0000    0    12.011    6.845124    1.245115   -0.000130
  16 C     6.0000    0    12.011    6.876413   -1.079878   -0.000055
  17 C     6.0000    0    12.011    4.824698   -2.707682   -0.000093
  18 C     6.0000    0    12.011    2.379213   -1.336196   -0.000240
  19 C     6.0000    0    12.011    2.345144    1.390996   -0.000331
  20 C     6.0000    0    12.011   -0.033801    2.725229   -0.000470
  21 C     6.0000    0    12.011   -2.378929    1.332533   -0.000535
  22 C     6.0000    0    12.011   -2.345026   -1.394668   -0.000445
  23 C     6.0000    0    12.011    0.033979   -2.728784   -0.000304

--------------------------------
INTERNAL COORDINATES (ANGSTROEM)
--------------------------------
 C      0   0   0     0.000000000000     0.00000000     0.00000000
 C      1   0   0     1.230474237265     0.00000000     0.00000000
 C      2   1   0     1.385822218666   127.70331759     0.00000000
 C      3   2   1     1.385733651791   135.47594703   179.99997523
 C      4   3   2     1.230452153286   127.80343205   180.00001882
 C      5   4   3     1.385919549395   127.67355614     0.00000000
 C      6   5   4     1.385712561141   135.47457190   180.00002909
 C      7   6   5     1.230457217546   127.77134412   179.99998369
 C      8   7   6     1.385737125123   127.72124103     0.00000000
 C      9   8   7     1.385728363547   135.51304247   179.99989944
 C     10   9   8     1.230459928846   127.80102993   180.00001486
 C     11  10   9     1.385948502235   127.68480519     0.00000000
 C     12  11  10     1.385774195844   135.45382085   180.00000900
 C     13  12  11     1.230461001540   127.76756949   180.00002996
 C     14  13  12     1.385786891376   127.70422308     0.00000000
 C     15  14  13     1.385633548529   135.50247062   180.00000709
 C     16  15  14     1.230444556261   127.83220849   180.00000319
 C      1   2   3     1.385750645948   127.78474890     0.00000000
 C     18   1   2     1.483714271145   112.22813369     0.00000000
 C     19  18   1     1.443280107514   120.00046811   180.00006642
 C     20  19  18     1.443360144326   120.00164977   180.00011290
 C     21  20  19     1.443327956226   120.00937243     0.00000000
 C     22  21  20     1.443284428018   119.99246513     0.00000000
 C     19  18   1     1.443347177007   120.01362534     0.00000000

---------------------------
INTERNAL COORDINATES (A.U.)
---------------------------
 C      0   0   0     0.000000000000     0.00000000     0.00000000
 C      1   0   0     2.325259323277     0.00000000     0.00000000
 C      2   1   0     2.618824463583   127.70331759     0.00000000
 C      3   2   1     2.618657096444   135.47594703   179.99997523
 C      4   3   2     2.325217590604   127.80343205   180.00001882
 C      5   4   3     2.619008392004   127.67355614     0.00000000
 C      6   5   4     2.618617240891   135.47457190   180.00002909
 C      7   6   5     2.325227160669   127.77134412   179.99998369
 C      8   7   6     2.618663660089   127.72124103     0.00000000
 C      9   8   7     2.618647103111   135.51304247   179.99989944
 C     10   9   8     2.325232284284   127.80102993   180.00001486
 C     11  10   9     2.619063104943   127.68480519     0.00000000
 C     12  11  10     2.618733713600   135.45382085   180.00000900
 C     13  12  11     2.325234311382   127.76756949   180.00002996
 C     14  13  12     2.618757704678   127.70422308     0.00000000
 C     15  14  13     2.618467928693   135.50247062   180.00000709
 C     16  15  14     2.325203234308   127.83220849   180.00000319
 C      1   2   3     2.618689210745   127.78474890     0.00000000
 C     18   1   2     2.803813633455   112.22813369     0.00000000
 C     19  18   1     2.727404137738   120.00046811   180.00006642
 C     20  19  18     2.727555385393   120.00164977   180.00011290
 C     21  20  19     2.727494558699   120.00937243     0.00000000
 C     22  21  20     2.727412302306   119.99246513     0.00000000
 C     19  18   1     2.727530880711   120.01362534     0.00000000

---------------------
BASIS SET INFORMATION
---------------------
There are 1 groups of distinct atoms

 Group   1 Type C   : 12s6p1d contracted to 5s4p1d pattern {63111/3111/1}

Atom   0C    basis set group =>   1
Atom   1C    basis set group =>   1
Atom   2C    basis set group =>   1
Atom   3C    basis set group =>   1
Atom   4C    basis set group =>   1
Atom   5C    basis set group =>   1
Atom   6C    basis set group =>   1
Atom   7C    basis set group =>   1
Atom   8C    basis set group =>   1
Atom   9C    basis set group =>   1
Atom  10C    basis set group =>   1
Atom  11C    basis set group =>   1
Atom  12C    basis set group =>   1
Atom  13C    basis set group =>   1
Atom  14C    basis set group =>   1
Atom  15C    basis set group =>   1
Atom  16C    basis set group =>   1
Atom  17C    basis set group =>   1
Atom  18C    basis set group =>   1
Atom  19C    basis set group =>   1
Atom  20C    basis set group =>   1
Atom  21C    basis set group =>   1
Atom  22C    basis set group =>   1
Atom  23C    basis set group =>   1
---------------------------------
AUXILIARY/J BASIS SET INFORMATION
---------------------------------
There are 1 groups of distinct atoms

 Group   1 Type C   : 12s5p4d2f1g contracted to 6s4p3d1f1g pattern {711111/2111/211/2/1}

Atom   0C    basis set group =>   1
Atom   1C    basis set group =>   1
Atom   2C    basis set group =>   1
Atom   3C    basis set group =>   1
Atom   4C    basis set group =>   1
Atom   5C    basis set group =>   1
Atom   6C    basis set group =>   1
Atom   7C    basis set group =>   1
Atom   8C    basis set group =>   1
Atom   9C    basis set group =>   1
Atom  10C    basis set group =>   1
Atom  11C    basis set group =>   1
Atom  12C    basis set group =>   1
Atom  13C    basis set group =>   1
Atom  14C    basis set group =>   1
Atom  15C    basis set group =>   1
Atom  16C    basis set group =>   1
Atom  17C    basis set group =>   1
Atom  18C    basis set group =>   1
Atom  19C    basis set group =>   1
Atom  20C    basis set group =>   1
Atom  21C    basis set group =>   1
Atom  22C    basis set group =>   1
Atom  23C    basis set group =>   1


           ************************************************************
           *        Program running with 7 parallel MPI-processes     *
           *              working on a common directory               *
           ************************************************************
------------------------------------------------------------------------------
                           ORCA GTO INTEGRAL CALCULATION
                           -- RI-GTO INTEGRALS CHOSEN --
------------------------------------------------------------------------------
------------------------------------------------------------------------------
                   ___                                                        
                  /   \      - P O W E R E D   B Y -                         
                 /     \                                                     
                 |  |  |   _    _      __       _____    __    __             
                 |  |  |  | |  | |    /  \     |  _  \  |  |  /  |          
                  \  \/   | |  | |   /    \    | | | |  |  | /  /          
                 / \  \   | |__| |  /  /\  \   | |_| |  |  |/  /          
                |  |  |   |  __  | /  /__\  \  |    /   |      \           
                |  |  |   | |  | | |   __   |  |    \   |  |\   \          
                \     /   | |  | | |  |  |  |  | |\  \  |  | \   \       
                 \___/    |_|  |_| |__|  |__|  |_| \__\ |__|  \__/        
                                                                              
                      - O R C A' S   B I G   F R I E N D -                    
                                      &                                       
                       - I N T E G R A L  F E E D E R -                       
                                                                              
 v1 FN, 2020, v2 2021                                                         
------------------------------------------------------------------------------


Reading SHARK input file loss_all_hydrogen_atoms_spectra.SHARKINP.tmp ... ok
----------------------
SHARK INTEGRAL PACKAGE
----------------------

Number of atoms                             ...     24
Number of basis functions                   ...    528
Number of shells                            ...    240
Maximum angular momentum                    ...      2
Integral batch strategy                     ... SHARK/LIBINT Hybrid
RI-J (if used) integral strategy            ... SPLIT-RIJ (Revised 2003 algorithm where possible)
Printlevel                                  ...      1
Contraction scheme used                     ... SEGMENTED contraction
Coulomb Range Separation                    ... NOT USED
Exchange Range Separation                   ... NOT USED
Finite Nucleus Model                        ... NOT USED
Auxiliary Coulomb fitting basis             ... AVAILABLE
   # of basis functions in Aux-J            ...   1176
   # of shells in Aux-J                     ...    360
   Maximum angular momentum in Aux-J        ...      4
Auxiliary J/K fitting basis                 ... NOT available
Auxiliary Correlation fitting basis         ... NOT available
Auxiliary 'external' fitting basis          ... NOT available
Integral threshold                          ...     1.000000e-10
Primitive cut-off                           ...     1.000000e-11
Primitive pair pre-selection threshold      ...     1.000000e-11

Calculating pre-screening integrals         ... done (  0.0 sec) Dimension = 240
Organizing shell pair data                  ... done (  0.1 sec)
Shell pair information
Total number of shell pairs                 ...     28920
Shell pairs after pre-screening             ...     24130
Total number of primitive shell pairs       ...    104700
Primitive shell pairs kept                  ...     56748
          la=0 lb=0:   5697 shell pairs
          la=1 lb=0:   9870 shell pairs
          la=1 lb=1:   4204 shell pairs
          la=2 lb=0:   2166 shell pairs
          la=2 lb=1:   1956 shell pairs
          la=2 lb=2:    237 shell pairs

Calculating one electron integrals          ... done (  0.0 sec)
Calculating RI/J V-Matrix + Cholesky decomp.... done (  0.1 sec)
Calculating Nuclear repulsion               ... done (  0.0 sec) ENN=   1616.521804980566 Eh

SHARK setup successfully completed in   0.6 seconds

Maximum memory used throughout the entire GTOINT-calculation: 34.5 MB


           ************************************************************
           *        Program running with 7 parallel MPI-processes     *
           *              working on a common directory               *
           ************************************************************
-------------------------------------------------------------------------------
                                 ORCA SCF
-------------------------------------------------------------------------------

------------
SCF SETTINGS
------------
Hamiltonian:
 Density Functional     Method          .... DFT(GTOs)
 Exchange Functional    Exchange        .... B88
   X-Alpha parameter    XAlpha          ....  0.666667
   Becke's b parameter  XBeta           ....  0.004200
 Correlation Functional Correlation     .... LYP
 LDA part of GGA corr.  LDAOpt          .... VWN-5
 Gradients option       PostSCFGGA      .... off
 Hybrid DFT is turned on
   Fraction HF Exchange ScalHFX         ....  0.200000
   Scaling of DF-GGA-X  ScalDFX         ....  0.720000
   Scaling of DF-GGA-C  ScalDFC         ....  0.810000
   Scaling of DF-LDA-C  ScalLDAC        ....  1.000000
   Perturbative correction              ....  0.000000
   Density functional embedding theory  .... OFF
   NL short-range parameter             ....  4.800000
 RI-approximation to the Coulomb term is turned on
   Number of AuxJ basis functions       .... 1176
   RIJ-COSX (HFX calculated with COS-X)).... on


General Settings:
 Integral files         IntName         .... loss_all_hydrogen_atoms_spectra
 Hartree-Fock type      HFTyp           .... RHF
 Total Charge           Charge          ....    0
 Multiplicity           Mult            ....    1
 Number of Electrons    NEL             ....  144
 Basis Dimension        Dim             ....  528
 Nuclear Repulsion      ENuc            ....   1616.5218049806 Eh

Convergence Acceleration:
 DIIS                   CNVDIIS         .... on
   Start iteration      DIISMaxIt       ....    12
   Startup error        DIISStart       ....  0.200000
   # of expansion vecs  DIISMaxEq       ....     5
   Bias factor          DIISBfac        ....   1.050
   Max. coefficient     DIISMaxC        ....  10.000
 Trust-Rad. Augm. Hess. CNVTRAH         .... auto
   Auto Start mean grad. ratio tolernc. ....  1.125000
   Auto Start start iteration           ....    20
   Auto Start num. interpolation iter.  ....    10
   Max. Number of Micro iterations      ....    16
   Max. Number of Macro iterations      .... Maxiter - #DIIS iter
   Number of Davidson start vectors     ....     2
   Converg. threshold I  (grad. norm)   ....   5.000e-05
   Converg. threshold II (energy diff.) ....   1.000e-06
   Grad. Scal. Fac. for Micro threshold ....   0.100
   Minimum threshold for Micro iter.    ....   0.010
   NR start threshold (gradient norm)   ....   0.001
   Initial trust radius                 ....   0.400
   Minimum AH scaling param. (alpha)    ....   1.000
   Maximum AH scaling param. (alpha)    .... 1000.000
   Orbital update algorithm             .... Taylor
   White noise on init. David. guess    .... on
   Maximum white noise                  ....   0.010
   Quad. conv. algorithm                .... NR
 SOSCF                  CNVSOSCF        .... on
   Start iteration      SOSCFMaxIt      ....   150
   Startup grad/error   SOSCFStart      ....  0.003300
 Level Shifting         CNVShift        .... on
   Level shift para.    LevelShift      ....    0.2500
   Turn off err/grad.   ShiftErr        ....    0.0010
 Zerner damping         CNVZerner       .... off
 Static damping         CNVDamp         .... on
   Fraction old density DampFac         ....    0.7000
   Max. Damping (<1)    DampMax         ....    0.9800
   Min. Damping (>=0)   DampMin         ....    0.0000
   Turn off err/grad.   DampErr         ....    0.1000
 Fernandez-Rico         CNVRico         .... off

SCF Procedure:
 Maximum # iterations   MaxIter         ....   125
 SCF integral mode      SCFMode         .... Direct
   Integral package                     .... SHARK and LIBINT hybrid scheme
 Reset frequency        DirectResetFreq ....    20
 Integral Threshold     Thresh          ....  1.000e-10 Eh
 Primitive CutOff       TCut            ....  1.000e-11 Eh

Convergence Tolerance:
 Convergence Check Mode ConvCheckMode   .... Total+1el-Energy
 Convergence forced     ConvForced      .... 1
 Energy Change          TolE            ....  1.000e-06 Eh
 1-El. energy change                    ....  1.000e-03 Eh
 Orbital Gradient       TolG            ....  5.000e-05
 Orbital Rotation angle TolX            ....  5.000e-05
 DIIS Error             TolErr          ....  1.000e-06


Diagonalization of the overlap matrix:
Smallest eigenvalue                        ... 3.233e-10
Time for diagonalization                   ...    0.025 sec
Threshold for overlap eigenvalues          ... 1.000e-08
Number of eigenvalues below threshold      ... 4
Smallest eigenvalue above threshold        ... 1.371e-08
Time for construction of square roots      ...    0.036 sec
Total time needed                          ...    0.062 sec

Time for model grid setup =    0.245 sec

------------------------------
INITIAL GUESS: MODEL POTENTIAL
------------------------------
Loading Hartree-Fock densities                     ... done
Calculating cut-offs                               ... done
Initializing the effective Hamiltonian             ... done
Setting up the integral package (SHARK)            ... done
Starting the Coulomb interaction                   ... done (   0.4 sec)
Reading the grid                                   ... done
Mapping shells                                     ... done
Starting the XC term evaluation                    ... done (   0.4 sec)
  promolecular density results
     # of electrons  =    143.985874167
     EX              =   -123.290481271
     EC              =     -4.990053686
     EX+EC           =   -128.280534956
Transforming the Hamiltonian                       ... done (   0.0 sec)
Diagonalizing the Hamiltonian                      ... done (   0.0 sec)
Back transforming the eigenvectors                 ... done (   0.0 sec)
Now organizing SCF variables                       ... done
                      ------------------
                      INITIAL GUESS DONE (   1.1 sec)
                      ------------------
-------------------
DFT GRID GENERATION
-------------------

General Integration Accuracy     IntAcc      ... 4.388
Radial Grid Type                 RadialGrid  ... OptM3 with GC (2021)
Angular Grid (max. ang.)         AngularGrid ... 4 (Lebedev-302)
Angular grid pruning method      GridPruning ... 4 (adaptive)
Weight generation scheme         WeightScheme... Becke
Basis function cutoff            BFCut       ... 1.0000e-10
Integration weight cutoff        WCut        ... 1.0000e-14
Angular grids for H and He will be reduced by one unit
Partially contracted basis set               ... off
Rotationally invariant grid construction     ... off

Total number of grid points                  ...   148450
Total number of batches                      ...     2333
Average number of points per batch           ...       63
Average number of grid points per atom       ...     6185
Time for grid setup =    1.078 sec

--------------------
COSX GRID GENERATION
--------------------

GRIDX 1
-------
General Integration Accuracy     IntAcc      ... 3.816
Radial Grid Type                 RadialGrid  ... OptM3 with GC (2021)
Angular Grid (max. ang.)         AngularGrid ... 1 (Lebedev-50)
Angular grid pruning method      GridPruning ... 4 (adaptive)
Weight generation scheme         WeightScheme... Becke
Basis function cutoff            BFCut       ... 1.0000e-10
Integration weight cutoff        WCut        ... 1.0000e-14
Angular grids for H and He will be reduced by one unit
Partially contracted basis set               ... on
Rotationally invariant grid construction     ... off

Total number of grid points                  ...    18726
Total number of batches                      ...      302
Average number of points per batch           ...       62
Average number of grid points per atom       ...      780
UseSFitting                                  ... on

GRIDX 2
-------
General Integration Accuracy     IntAcc      ... 4.020
Radial Grid Type                 RadialGrid  ... OptM3 with GC (2021)
Angular Grid (max. ang.)         AngularGrid ... 2 (Lebedev-110)
Angular grid pruning method      GridPruning ... 4 (adaptive)
Weight generation scheme         WeightScheme... Becke
Basis function cutoff            BFCut       ... 1.0000e-10
Integration weight cutoff        WCut        ... 1.0000e-14
Angular grids for H and He will be reduced by one unit
Partially contracted basis set               ... on
Rotationally invariant grid construction     ... off

Total number of grid points                  ...    48488
Total number of batches                      ...      770
Average number of points per batch           ...       62
Average number of grid points per atom       ...     2020
UseSFitting                                  ... on

GRIDX 3
-------
General Integration Accuracy     IntAcc      ... 4.338
Radial Grid Type                 RadialGrid  ... OptM3 with GC (2021)
Angular Grid (max. ang.)         AngularGrid ... 3 (Lebedev-194)
Angular grid pruning method      GridPruning ... 4 (adaptive)
Weight generation scheme         WeightScheme... Becke
Basis function cutoff            BFCut       ... 1.0000e-10
Integration weight cutoff        WCut        ... 1.0000e-14
Angular grids for H and He will be reduced by one unit
Partially contracted basis set               ... on
Rotationally invariant grid construction     ... off

Total number of grid points                  ...   104997
Total number of batches                      ...     1652
Average number of points per batch           ...       63
Average number of grid points per atom       ...     4375
UseSFitting                                  ... on

Time for X-Grid setup             =    1.728 sec

--------------
SCF ITERATIONS
--------------
ITER       Energy         Delta-E        Max-DP      RMS-DP      [F,P]     Damp
               ***  Starting incremental Fock matrix formation  ***
  0   -913.2312498519   0.000000000000138.09558976  1.04078860  0.1133682 0.7000
  1   -913.3589453732  -0.1276955213006663548.37003682 38285.33904418  0.0695049 0.7000
                               ***Turning on DIIS***
  2   -913.0236323219   0.33531305122718020540.58367513 144654.49354574  0.0338840 0.0000
  3   -910.4527910557   2.570841266190587211.05935101 6434.62710855  0.0646974 0.0000
  4   -910.5388822545  -0.0860911987781413161.88882064 13163.90209214  0.0417315 0.0000
  5   -910.5642970301  -0.0254147755533132211.76665991 31801.90228229  0.0301187 0.0000
  6   -910.4227083666   0.1415886634183602396.87723401 42173.51655130  0.0220225 0.0000
  7   -910.1951808455   0.2275275211292974885.12132482 42351.32912863  0.0137334 0.0000
  8   -909.9748264861   0.2203543593925359463.88850576 79692.78221215  0.0036576 0.0000
  9   -908.1772982666   1.79752821954592839.79205985 1089.82992320  0.0764035 0.0000
 10   -908.1766873545   0.000610912055279368.44360964 3461.66962728  0.0768730 0.0000
 11   -908.1802585776  -0.003571223111449718.44234672 6032.39978357  0.0777215 0.0000
 12   -908.1866954539  -0.006436876228492651.20702353 7772.95360249  0.0778436 0.0000
 13   -908.2071860551  -0.0204906012621925650.74103137 35850.81749765  0.0795477 0.0000
 14   -908.1449121673   0.0622738878606271025.60160683 90545.92673703  0.0878297 0.0000
 15   -908.1490328355  -0.0041206682001626125.21284437 26833.86464640  0.0214532 0.0000
 16   -908.1908627510  -0.0418299155021356909.86961753 19244.84125579  0.0101110 0.0000
 17   -908.1373931599   0.053469591063813567.01709187 9550.88502230  0.0058642 0.0000
 18   -908.0786697030   0.0587234569451541238.51453202 22606.72434951  0.0043283 0.0000
 19   -908.0302148384   0.0484548645391434513.51231768 15035.32886673  0.0052800 0.0000
               *** Restarting incremental Fock matrix formation ***
                                   *** Resetting DIIS ***
 20   -906.7388595691   1.29135526928028786180.28852981 264720.72716289  0.0643907 0.0000

 WARNING: the maximum gradient error descreased on average only by a factor   1.0
          during the last 20 iterations

                      *** Initiating the TRAH-SCF procedure ***


TRAH GRIDX
----------

General Integration Accuracy     IntAcc      ... 3.067
Radial Grid Type                 RadialGrid  ... OptM3 with GC (2021)
Angular Grid (max. ang.)         AngularGrid ... 1 (Lebedev-50)
Angular grid pruning method      GridPruning ... 4 (adaptive)
Weight generation scheme         WeightScheme... Becke
Basis function cutoff            BFCut       ... 1.0000e-10
Integration weight cutoff        WCut        ... 1.0000e-14
Angular grids for H and He will be reduced by one unit
Partially contracted basis set               ... on
Rotationally invariant grid construction     ... off

Total number of grid points                  ...    10332
Total number of batches                      ...      174
Average number of points per batch           ...       59
Average number of grid points per atom       ...      431


TRAH GRID
---------

General Integration Accuracy     IntAcc      ... 3.467
Radial Grid Type                 RadialGrid  ... OptM3 with GC (2021)
Angular Grid (max. ang.)         AngularGrid ... 1 (Lebedev-50)
Angular grid pruning method      GridPruning ... 4 (adaptive)
Weight generation scheme         WeightScheme... Becke
Basis function cutoff            BFCut       ... 1.0000e-10
Integration weight cutoff        WCut        ... 1.0000e-14
Angular grids for H and He will be reduced by one unit
Partially contracted basis set               ... off
Rotationally invariant grid construction     ... off

Total number of grid points                  ...    23700
Total number of batches                      ...      386
Average number of points per batch           ...       61
Average number of grid points per atom       ...      988

 --------------------------------------------------------------------------------------------
   Iter.        energy            ||Error||_2        Shift      TRadius  Mac/Mic        Rej.
 --------------------------------------------------------------------------------------------
WARNING: 793 diagonal Hessian elements are negative!
    0       -911.653926009183     4.121047e+00                     0.400 (TRAH MAcro)   No
WARNING : negative HOMO - LUMO gap : -1.067847
    0     dE    -9.333083e-01     4.455823e+00    -1.6175e+00      0.392 (TRAH MIcro)
    0     dE    -1.109326e+00     1.469484e+00    -5.4738e+00      0.386 (TRAH MIcro)
    0     dE    -1.142511e+00     5.454483e-01    -5.5880e+00      0.391 (TRAH MIcro)
    0     dE    -1.133291e+00     2.100061e-01    -5.6079e+00      0.385 (TRAH MIcro)
    0     dE    -1.129727e+00     6.739653e-02    -5.6127e+00      0.383 (TRAH MIcro)
    0     dE    -1.130151e+00     2.348970e-02    -5.6136e+00      0.383 (TRAH MIcro)
    0     dE    -1.130722e+00     1.023462e-02    -5.6138e+00      0.383 (TRAH MIcro)
    0     dE    -1.130803e+00     4.882537e-03    -5.6138e+00      0.383 (TRAH MIcro)
WARNING: 239 diagonal Hessian elements are negative!
    1       -912.751190120616     1.916465e+00                     0.480 (TRAH MAcro)   No
WARNING : negative HOMO - LUMO gap : -0.577059
    1     dE    -3.159967e-01     1.126897e+00    -5.7911e-01      0.302 (TRAH MIcro)
    1     dE    -5.181850e-01     4.348391e-01    -1.3795e+00      0.480 (TRAH MIcro)
    1     dE    -5.535668e-01     3.275941e-01    -1.9844e+00      0.480 (TRAH MIcro)
    1     dE    -5.505463e-01     1.615264e-01    -2.3353e+00      0.464 (TRAH MIcro)
    1     dE    -5.748310e-01     1.085758e-01    -2.4574e+00      0.480 (TRAH MIcro)
    1     dE    -5.629054e-01     3.655620e-02    -2.5205e+00      0.468 (TRAH MIcro)
    1     dE    -5.676173e-01     1.568974e-02    -2.5213e+00      0.472 (TRAH MIcro)
    1     dE    -5.702536e-01     1.198128e-02    -2.5215e+00      0.474 (TRAH MIcro)
    1     dE    -3.459845e-01     2.537126e-01    -3.8229e+00      0.257 (TRAH MIcro)
    1     dE    -3.455462e-01     5.226267e-02    -3.8486e+00      0.254 (TRAH MIcro)
    1     dE    -3.455601e-01     1.654057e-02    -3.8506e+00      0.254 (TRAH MIcro)
    1     dE    -3.455522e-01     6.279385e-03    -3.8508e+00      0.254 (TRAH MIcro)
WARNING: 55 diagonal Hessian elements are negative!
    2       -913.088624030261     8.922541e-01                     0.576 (TRAH MAcro)   No
WARNING : negative HOMO - LUMO gap : -0.335448
    2     dE    -1.032214e-01     6.072674e-01    -1.9686e-01      0.221 (TRAH MIcro)
    2     dE    -2.091520e-01     4.481177e-01    -3.3292e-01      0.506 (TRAH MIcro)
    2     dE    -2.793335e-01     5.083004e-01    -6.7263e-01      0.576 (TRAH MIcro)
    2     dE    -3.274706e-01     2.588569e-01    -1.1293e+00      0.576 (TRAH MIcro)
    2     dE    -3.392301e-01     2.111744e-01    -1.2457e+00      0.576 (TRAH MIcro)
    2     dE    -1.720891e-01     9.670628e-02    -1.7016e+00      0.296 (TRAH MIcro)
    2     dE    -1.693291e-01     2.856321e-02    -1.7118e+00      0.288 (TRAH MIcro)
    2     dE    -1.689930e-01     6.771990e-03    -1.7124e+00      0.287 (TRAH MIcro)
WARNING: 11 diagonal Hessian elements are negative!
    3       -913.241602561732     3.462278e-01                     0.691 (TRAH MAcro)   No
WARNING : negative HOMO - LUMO gap : -0.168712
    3     dE    -3.346586e-02     4.883709e-01    -6.4675e-02      0.187 (TRAH MIcro)
    3     dE    -6.565352e-02     3.989709e-01    -1.1373e-01      0.393 (TRAH MIcro)
    3     dE    -1.005940e-01     3.865725e-01    -1.4928e-01      0.590 (TRAH MIcro)
    3     dE    -1.291678e-01     2.597595e-01    -2.3200e-01      0.684 (TRAH MIcro)
    3     dE    -1.366008e-01     1.481854e-01    -2.6964e-01      0.691 (TRAH MIcro)
    3     dE    -1.438332e-01     3.700077e-01    -3.2331e-01      0.691 (TRAH MIcro)
    3     dE    -6.822758e-02     1.144654e-01    -6.6208e-01      0.302 (TRAH MIcro)
    3     dE    -1.249064e-01     2.487095e-01    -6.8476e-01      0.500 (TRAH MIcro)
    3     dE    -4.185000e-02     7.333857e-02    -1.2188e+00      0.165 (TRAH MIcro)
    3     dE    -4.193578e-02     1.225381e-02    -1.2249e+00      0.164 (TRAH MIcro)
    3     dE    -4.194215e-02     3.074199e-03    -1.2252e+00      0.164 (TRAH MIcro)
WARNING: 7 diagonal Hessian elements are negative!
    4       -913.282343387184     1.809347e-01                     0.829 (TRAH MAcro)   No
WARNING : negative HOMO - LUMO gap : -0.126506
    4     dE    -1.641028e-02     3.675732e-01    -3.1835e-02      0.176 (TRAH MIcro)
    4     dE    -2.440838e-02     2.921366e-01    -4.5402e-02      0.274 (TRAH MIcro)
    4     dE    -3.999332e-02     2.099962e-01    -6.5886e-02      0.463 (TRAH MIcro)
    4     dE    -4.584271e-02     1.195813e-01    -7.1860e-02      0.525 (TRAH MIcro)
    4     dE    -5.150630e-02     2.215913e-01    -7.6329e-02      0.591 (TRAH MIcro)
    4     dE    -3.994643e-02     2.781243e-01    -3.4598e-01      0.341 (TRAH MIcro)
    4     dE    -2.655579e-02     1.178335e-01    -6.4573e-01      0.202 (TRAH MIcro)
    4     dE    -3.346773e-02     4.193856e-02    -6.6665e-01      0.242 (TRAH MIcro)
    4     dE    -3.512015e-02     2.528743e-02    -6.6961e-01      0.252 (TRAH MIcro)
    4     dE    -3.670552e-02     1.274817e-02    -6.7049e-01      0.261 (TRAH MIcro)
    4     dE    -3.767358e-02     5.768243e-03    -6.7074e-01      0.266 (TRAH MIcro)
WARNING: 2 diagonal Hessian elements are negative!
    5       -913.317233986847     1.579293e-01                     0.995 (TRAH MAcro)   No
WARNING : negative HOMO - LUMO gap : -0.087555
    5     dE    -1.496781e-02     8.151359e-01    -2.8960e-02      0.184 (TRAH MIcro)
    5     dE    -4.945107e-02     1.222027e+00    -7.7576e-02      0.524 (TRAH MIcro)
    5     dE    -2.051341e-01     9.425483e-01    -3.0212e-01      0.952 (TRAH MIcro)
    5     dE    -2.924700e-01     4.989489e-01    -5.0407e-01      0.951 (TRAH MIcro)
    5     dE    -3.394782e-01     2.864470e-01    -5.5583e-01      0.995 (TRAH MIcro)
    5     dE    -3.446312e-01     8.645059e-02    -5.6897e-01      0.995 (TRAH MIcro)
    5     dE    -3.451089e-01     2.577742e-02    -5.7032e-01      0.995 (TRAH MIcro)
    5     dE    -3.451546e-01     1.111510e-02    -5.7043e-01      0.995 (TRAH MIcro)
    5     dE    -3.451626e-01     4.134449e-03    -5.7043e-01      0.995 (TRAH MIcro)
    6       -913.506255730186     3.973754e-01                     0.995 (TRAH MAcro)   No
    6     dE    -9.396339e-03     5.340413e-01    -1.8751e-02      0.047 (TRAH MIcro)
    6     dE    -4.479502e-02     2.052291e-01    -7.7793e-02      0.389 (TRAH MIcro)
    6     dE    -5.032513e-02     5.843986e-02    -8.3891e-02      0.447 (TRAH MIcro)
    6     dE    -5.084410e-02     2.427879e-02    -8.4309e-02      0.454 (TRAH MIcro)
    6     dE    -5.088897e-02     1.131894e-02    -8.4405e-02      0.454 (TRAH MIcro)
    6     dE    -5.086559e-02     4.022755e-03    -8.4418e-02      0.453 (TRAH MIcro)
    7       -913.538710447099     2.059417e-01                     0.995 (TRAH MAcro)   No
    7     dE    -2.594431e-03     2.535146e-01    -5.1856e-03      0.025 (TRAH MIcro)
    7     dE    -4.848052e-03     5.803302e-02    -9.6554e-03      0.065 (TRAH MIcro)
    7     dE    -5.294031e-03     3.944432e-02    -1.0525e-02      0.077 (TRAH MIcro)
    7     dE    -5.411547e-03     1.650001e-02    -1.0747e-02      0.084 (TRAH MIcro)
    7     dE    -5.428034e-03     4.367165e-03    -1.0776e-02      0.086 (TRAH MIcro)
    8       -913.544499084560     1.721715e-02                     1.194 (TRAH MAcro)   No
    8     dE    -2.574885e-05     3.577819e-02    -5.1497e-05      0.003 (TRAH MIcro)
    8     dE    -1.276813e-04     8.572133e-03    -2.5526e-04      0.020 (TRAH MIcro)
    8     dE    -1.332025e-04     3.749233e-03    -2.6628e-04      0.022 (TRAH MIcro)
    8     dE    -1.340635e-04     1.381928e-03    -2.6799e-04      0.022 (TRAH MIcro)
    9       -913.544634986062     1.693816e-03                     1.433 (TRAH MAcro)   No
    9     dE    -1.130747e-07     2.812921e-03    -2.2616e-07      0.000 (TRAH MIcro)
    9     dE    -3.061648e-07     6.024096e-04    -6.1233e-07      0.001 (TRAH MIcro)
    9     dE    -3.644331e-07     6.140657e-04    -7.2887e-07      0.001 (TRAH MIcro)
    9     dE    -3.869815e-07     1.135496e-04    -7.7396e-07      0.001 (TRAH MIcro)
   10       -913.544635372664     1.150271e-04                           (NR   MAcro)
   10     dE    -5.054455e-10     5.611507e-05                           (NR   MIcro)
   10     dE    -6.582805e-10     2.277997e-05                           (NR   MIcro)
   10     dE    -6.955221e-10     8.684993e-06                           (NR   MIcro)
   10     dE    -7.003490e-10     4.518416e-06                           (NR   MIcro)
   11       -913.544635369628     8.439061e-06                           (NR   MAcro)

               *****************************************************
               *                     SUCCESS                       *
               *           SCF CONVERGED AFTER 115 CYCLES          *
               *****************************************************

Old exchange energy                            =    -24.811330900 Eh
New exchange energy                            =    -24.811340634 Eh
Exchange energy change after final integration =     -0.000009734 Eh
Total energy after final integration           =   -913.544645104 Eh
Final COS-X integration done in                =    22.495 sec

----------------
TOTAL SCF ENERGY
----------------

Total Energy       :         -913.54464510 Eh          -24858.81359 eV

Components:
Nuclear Repulsion  :         1616.52180498 Eh           43987.79461 eV
Electronic Energy  :        -2530.06645008 Eh          -68846.60820 eV
One Electron Energy:        -4441.28241057 Eh         -120853.43846 eV
Two Electron Energy:         1911.21596049 Eh           52006.83026 eV
Max COSX asymmetry :            0.00012857 Eh               0.00350 eV

Virial components:
Potential Energy   :        -1823.92369043 Eh          -49631.48683 eV
Kinetic Energy     :          910.37904533 Eh           24772.67324 eV
Virial Ratio       :            2.00347723


DFT components:
N(Alpha)           :       72.000123874235 electrons
N(Beta)            :       72.000123874235 electrons
N(Total)           :      144.000247748470 electrons
E(X)               :      -98.840186109252 Eh       
E(C)               :       -5.867628311793 Eh       
E(XC)              :     -104.707814421045 Eh       
DFET-embed. en.    :        0.000000000000 Eh       

---------------
SCF CONVERGENCE
---------------

  Last Energy change         ...    3.0363e-09  Tolerance :   1.0000e-06
  Last Orbital Gradient      ...    8.4391e-06  Tolerance :   5.0000e-05
  Last Orbital Rotation      ...    2.8927e-05

             **** THE GBW FILE WAS UPDATED (loss_all_hydrogen_atoms_spectra.gbw) ****
             **** DENSITY loss_all_hydrogen_atoms_spectra.scfp WAS UPDATED ****
             **** ENERGY FILE WAS UPDATED (loss_all_hydrogen_atoms_spectra.en.tmp) ****
             **** THE GBW FILE WAS UPDATED (loss_all_hydrogen_atoms_spectra.gbw) ****
             **** DENSITY loss_all_hydrogen_atoms_spectra.scfp WAS UPDATED ****
----------------
ORBITAL ENERGIES
----------------

  NO   OCC          E(Eh)            E(eV) 
   0   2.0000     -10.266457      -279.3645 
   1   2.0000     -10.266455      -279.3644 
   2   2.0000     -10.266442      -279.3641 
   3   2.0000     -10.266437      -279.3640 
   4   2.0000     -10.266418      -279.3634 
   5   2.0000     -10.266405      -279.3631 
   6   2.0000     -10.247619      -278.8519 
   7   2.0000     -10.247454      -278.8474 
   8   2.0000     -10.247445      -278.8472 
   9   2.0000     -10.247057      -278.8366 
  10   2.0000     -10.247049      -278.8364 
  11   2.0000     -10.246856      -278.8311 
  12   2.0000     -10.216125      -277.9949 
  13   2.0000     -10.216116      -277.9946 
  14   2.0000     -10.216112      -277.9945 
  15   2.0000     -10.216099      -277.9942 
  16   2.0000     -10.216096      -277.9941 
  17   2.0000     -10.216080      -277.9937 
  18   2.0000     -10.214156      -277.9413 
  19   2.0000     -10.214149      -277.9411 
  20   2.0000     -10.214148      -277.9411 
  21   2.0000     -10.214139      -277.9409 
  22   2.0000     -10.214133      -277.9407 
  23   2.0000     -10.214129      -277.9406 
  24   2.0000      -0.952922       -25.9303 
  25   2.0000      -0.921446       -25.0738 
  26   2.0000      -0.921438       -25.0736 
  27   2.0000      -0.876686       -23.8558 
  28   2.0000      -0.876672       -23.8555 
  29   2.0000      -0.846608       -23.0374 
  30   2.0000      -0.834372       -22.7044 
  31   2.0000      -0.806083       -21.9346 
  32   2.0000      -0.774027       -21.0623 
  33   2.0000      -0.774014       -21.0620 
  34   2.0000      -0.760714       -20.7001 
  35   2.0000      -0.760699       -20.6997 
  36   2.0000      -0.680373       -18.5139 
  37   2.0000      -0.680363       -18.5136 
  38   2.0000      -0.659866       -17.9559 
  39   2.0000      -0.647122       -17.6091 
  40   2.0000      -0.647112       -17.6088 
  41   2.0000      -0.585677       -15.9371 
  42   2.0000      -0.558795       -15.2056 
  43   2.0000      -0.554663       -15.0931 
  44   2.0000      -0.554641       -15.0926 
  45   2.0000      -0.554528       -15.0895 
  46   2.0000      -0.537183       -14.6175 
  47   2.0000      -0.514097       -13.9893 
  48   2.0000      -0.514054       -13.9881 
  49   2.0000      -0.490810       -13.3556 
  50   2.0000      -0.490801       -13.3554 
  51   2.0000      -0.472551       -12.8588 
  52   2.0000      -0.450321       -12.2539 
  53   2.0000      -0.437386       -11.9019 
  54   2.0000      -0.437379       -11.9017 
  55   2.0000      -0.428525       -11.6607 
  56   2.0000      -0.428512       -11.6604 
  57   2.0000      -0.386578       -10.5193 
  58   2.0000      -0.386569       -10.5191 
  59   2.0000      -0.366228        -9.9656 
  60   2.0000      -0.329809        -8.9746 
  61   2.0000      -0.315441        -8.5836 
  62   2.0000      -0.314712        -8.5638 
  63   2.0000      -0.313520        -8.5313 
  64   2.0000      -0.313490        -8.5305 
  65   2.0000      -0.306524        -8.3410 
  66   2.0000      -0.306503        -8.3404 
  67   2.0000      -0.305146        -8.3034 
  68   2.0000      -0.295594        -8.0435 
  69   2.0000      -0.295581        -8.0432 
  70   2.0000      -0.251425        -6.8416 
  71   2.0000      -0.251412        -6.8413 
  72   0.0000      -0.122713        -3.3392 
  73   0.0000      -0.121391        -3.3032 
  74   0.0000      -0.121375        -3.3028 
  75   0.0000      -0.104660        -2.8479 
  76   0.0000      -0.098900        -2.6912 
  77   0.0000      -0.098876        -2.6906 
  78   0.0000      -0.097566        -2.6549 
  79   0.0000      -0.097554        -2.6546 
  80   0.0000      -0.049309        -1.3418 
  81   0.0000      -0.049304        -1.3416 
  82   0.0000      -0.045675        -1.2429 
  83   0.0000      -0.000000        -0.0000 
  84   0.0000       0.000000         0.0000 
  85   0.0000       0.000000         0.0000 
  86   0.0000       0.000000         0.0000 
  87   0.0000       0.005474         0.1490 
  88   0.0000       0.022080         0.6008 
  89   0.0000       0.024615         0.6698 
  90   0.0000       0.024735         0.6731 
  91   0.0000       0.031708         0.8628 
  92   0.0000       0.037463         1.0194 
  93   0.0000       0.040164         1.0929 
  94   0.0000       0.040629         1.1056 
  95   0.0000       0.047482         1.2921 
  96   0.0000       0.048632         1.3233 
  97   0.0000       0.048634         1.3234 
  98   0.0000       0.053836         1.4650 
  99   0.0000       0.058655         1.5961 
 100   0.0000       0.058691         1.5971 
 101   0.0000       0.066357         1.8057 
 102   0.0000       0.074223         2.0197 
 103   0.0000       0.074225         2.0198 
 104   0.0000       0.076004         2.0682 
 105   0.0000       0.078452         2.1348 
 106   0.0000       0.086137         2.3439 
 107   0.0000       0.086674         2.3585 
 108   0.0000       0.086684         2.3588 
 109   0.0000       0.101338         2.7576 
 110   0.0000       0.101461         2.7609 
 111   0.0000       0.110326         3.0021 
 112   0.0000       0.111557         3.0356 
 113   0.0000       0.112339         3.0569 
 114   0.0000       0.115135         3.1330 
 115   0.0000       0.118148         3.2150 
 116   0.0000       0.131223         3.5708 
 117   0.0000       0.131226         3.5708 
 118   0.0000       0.132963         3.6181 
 119   0.0000       0.142672         3.8823 
 120   0.0000       0.142678         3.8825 
 121   0.0000       0.145197         3.9510 
 122   0.0000       0.145481         3.9587 
 123   0.0000       0.151092         4.1114 
 124   0.0000       0.153842         4.1862 
 125   0.0000       0.154495         4.2040 
 126   0.0000       0.162882         4.4322 
 127   0.0000       0.167911         4.5691 
 128   0.0000       0.174008         4.7350 
 129   0.0000       0.177210         4.8221 
 130   0.0000       0.177227         4.8226 
 131   0.0000       0.179442         4.8829 
 132   0.0000       0.180278         4.9056 
 133   0.0000       0.186902         5.0859 
 134   0.0000       0.187180         5.0934 
 135   0.0000       0.187185         5.0936 
 136   0.0000       0.187411         5.0997 
 137   0.0000       0.194896         5.3034 
 138   0.0000       0.200128         5.4458 
 139   0.0000       0.200136         5.4460 
 140   0.0000       0.202634         5.5140 
 141   0.0000       0.211410         5.7528 
 142   0.0000       0.214332         5.8323 
 143   0.0000       0.216110         5.8807 
 144   0.0000       0.218087         5.9344 
 145   0.0000       0.218816         5.9543 
 146   0.0000       0.223573         6.0837 
 147   0.0000       0.224648         6.1130 
 148   0.0000       0.231714         6.3053 
 149   0.0000       0.232952         6.3389 
 150   0.0000       0.233993         6.3673 
 151   0.0000       0.236168         6.4264 
 152   0.0000       0.238735         6.4963 
 153   0.0000       0.240384         6.5412 
 154   0.0000       0.240624         6.5477 
 155   0.0000       0.241115         6.5611 
 156   0.0000       0.243597         6.6286 
 157   0.0000       0.246793         6.7156 
 158   0.0000       0.248029         6.7492 
 159   0.0000       0.253637         6.9018 
 160   0.0000       0.253648         6.9021 
 161   0.0000       0.268385         7.3031 
 162   0.0000       0.274668         7.4741 
 163   0.0000       0.274875         7.4797 
 164   0.0000       0.286324         7.7913 
 165   0.0000       0.287227         7.8158 
 166   0.0000       0.287348         7.8191 
 167   0.0000       0.289906         7.8888 
 168   0.0000       0.298041         8.1101 
 169   0.0000       0.298060         8.1106 
 170   0.0000       0.300888         8.1876 
 171   0.0000       0.305357         8.3092 
 172   0.0000       0.311143         8.4666 
 173   0.0000       0.313084         8.5194 
 174   0.0000       0.318140         8.6570 
 175   0.0000       0.322271         8.7695 
 176   0.0000       0.340809         9.2739 
 177   0.0000       0.342135         9.3100 
 178   0.0000       0.348277         9.4771 
 179   0.0000       0.351210         9.5569 
 180   0.0000       0.358568         9.7571 
 181   0.0000       0.362741         9.8707 
 182   0.0000       0.363587         9.8937 
 183   0.0000       0.366448         9.9715 
 184   0.0000       0.372254        10.1295 
 185   0.0000       0.373250        10.1567 
 186   0.0000       0.383302        10.4302 
 187   0.0000       0.402355        10.9486 
 188   0.0000       0.405429        11.0323 
 189   0.0000       0.409232        11.1358 
 190   0.0000       0.414278        11.2731 
 191   0.0000       0.427996        11.6464 
 192   0.0000       0.429317        11.6823 
 193   0.0000       0.437955        11.9174 
 194   0.0000       0.440131        11.9766 
 195   0.0000       0.445089        12.1115 
 196   0.0000       0.447540        12.1782 
 197   0.0000       0.449373        12.2281 
 198   0.0000       0.455014        12.3816 
 199   0.0000       0.490232        13.3399 
 200   0.0000       0.494524        13.4567 
 201   0.0000       0.496675        13.5152 
 202   0.0000       0.499026        13.5792 
 203   0.0000       0.506713        13.7884 
 204   0.0000       0.508779        13.8446 
 205   0.0000       0.508799        13.8451 
 206   0.0000       0.523801        14.2533 
 207   0.0000       0.526397        14.3240 
 208   0.0000       0.535828        14.5806 
 209   0.0000       0.535840        14.5809 
 210   0.0000       0.540212        14.6999 
 211   0.0000       0.546144        14.8613 
 212   0.0000       0.548999        14.9390 
 213   0.0000       0.550367        14.9762 
 214   0.0000       0.552714        15.0401 
 215   0.0000       0.556712        15.1489 
 216   0.0000       0.567587        15.4448 
 217   0.0000       0.585750        15.9391 
 218   0.0000       0.587943        15.9987 
 219   0.0000       0.588741        16.0205 
 220   0.0000       0.598428        16.2841 
 221   0.0000       0.599789        16.3211 
 222   0.0000       0.603425        16.4200 
 223   0.0000       0.604105        16.4385 
 224   0.0000       0.606395        16.5009 
 225   0.0000       0.606400        16.5010 
 226   0.0000       0.606759        16.5107 
 227   0.0000       0.607236        16.5237 
 228   0.0000       0.610023        16.5996 
 229   0.0000       0.610743        16.6192 
 230   0.0000       0.619225        16.8500 
 231   0.0000       0.619230        16.8501 
 232   0.0000       0.622690        16.9442 
 233   0.0000       0.623878        16.9766 
 234   0.0000       0.641940        17.4681 
 235   0.0000       0.643159        17.5012 
 236   0.0000       0.643356        17.5066 
 237   0.0000       0.649802        17.6820 
 238   0.0000       0.650310        17.6958 
 239   0.0000       0.657381        17.8882 
 240   0.0000       0.664055        18.0699 
 241   0.0000       0.666617        18.1396 
 242   0.0000       0.666625        18.1398 
 243   0.0000       0.670278        18.2392 
 244   0.0000       0.670280        18.2392 
 245   0.0000       0.672902        18.3106 
 246   0.0000       0.691687        18.8218 
 247   0.0000       0.692174        18.8350 
 248   0.0000       0.707781        19.2597 
 249   0.0000       0.714636        19.4462 
 250   0.0000       0.714832        19.4516 
 251   0.0000       0.717242        19.5171 
 252   0.0000       0.719076        19.5671 
 253   0.0000       0.719205        19.5706 
 254   0.0000       0.719213        19.5708 
 255   0.0000       0.728166        19.8144 
 256   0.0000       0.738470        20.0948 
 257   0.0000       0.743439        20.2300 
 258   0.0000       0.743731        20.2380 
 259   0.0000       0.757042        20.6002 
 260   0.0000       0.765338        20.8259 
 261   0.0000       0.765370        20.8268 
 262   0.0000       0.768308        20.9067 
 263   0.0000       0.770461        20.9653 
 264   0.0000       0.800098        21.7718 
 265   0.0000       0.800786        21.7905 
 266   0.0000       0.806191        21.9376 
 267   0.0000       0.811471        22.0812 
 268   0.0000       0.816083        22.2067 
 269   0.0000       0.853422        23.2228 
 270   0.0000       0.866201        23.5705 
 271   0.0000       0.895526        24.3685 
 272   0.0000       0.905984        24.6531 
 273   0.0000       0.910468        24.7751 
 274   0.0000       0.923195        25.1214 
 275   0.0000       0.935031        25.4435 
 276   0.0000       0.935704        25.4618 
 277   0.0000       0.939286        25.5593 
 278   0.0000       0.941995        25.6330 
 279   0.0000       0.948062        25.7981 
 280   0.0000       0.952601        25.9216 
 281   0.0000       0.968294        26.3486 
 282   0.0000       0.968332        26.3497 
 283   0.0000       0.976066        26.5601 
 284   0.0000       0.976090        26.5608 
 285   0.0000       0.976463        26.5709 
 286   0.0000       0.985058        26.8048 
 287   0.0000       0.985954        26.8292 
 288   0.0000       0.991173        26.9712 
 289   0.0000       0.993640        27.0383 
 290   0.0000       0.997076        27.1318 
 291   0.0000       1.018824        27.7236 
 292   0.0000       1.019870        27.7521 
 293   0.0000       1.021011        27.7831 
 294   0.0000       1.029758        28.0211 
 295   0.0000       1.037900        28.2427 
 296   0.0000       1.040088        28.3022 
 297   0.0000       1.070178        29.1210 
 298   0.0000       1.115156        30.3450 
 299   0.0000       1.115606        30.3572 
 300   0.0000       1.115728        30.3605 
 301   0.0000       1.115763        30.3614 
 302   0.0000       1.118119        30.4256 
 303   0.0000       1.119971        30.4760 
 304   0.0000       1.120002        30.4768 
 305   0.0000       1.120337        30.4859 
 306   0.0000       1.122709        30.5505 
 307   0.0000       1.135091        30.8874 
 308   0.0000       1.142088        31.0778 
 309   0.0000       1.159693        31.5568 
 310   0.0000       1.174604        31.9626 
 311   0.0000       1.192215        32.4418 
 312   0.0000       1.195176        32.5224 
 313   0.0000       1.196747        32.5651 
 314   0.0000       1.198601        32.6156 
 315   0.0000       1.200092        32.6562 
 316   0.0000       1.228765        33.4364 
 317   0.0000       1.228778        33.4368 
 318   0.0000       1.232334        33.5335 
 319   0.0000       1.232355        33.5341 
 320   0.0000       1.235396        33.6168 
 321   0.0000       1.256099        34.1802 
 322   0.0000       1.262119        34.3440 
 323   0.0000       1.262297        34.3488 
 324   0.0000       1.273424        34.6516 
 325   0.0000       1.278505        34.7899 
 326   0.0000       1.282323        34.8938 
 327   0.0000       1.332133        36.2492 
 328   0.0000       1.336449        36.3666 
 329   0.0000       1.395775        37.9810 
 330   0.0000       1.409775        38.3619 
 331   0.0000       1.437087        39.1051 
 332   0.0000       1.455757        39.6132 
 333   0.0000       1.455872        39.6163 
 334   0.0000       1.456979        39.6464 
 335   0.0000       1.456996        39.6469 
 336   0.0000       1.457541        39.6617 
 337   0.0000       1.462543        39.7978 
 338   0.0000       1.502859        40.8949 
 339   0.0000       1.503458        40.9112 
 340   0.0000       1.506399        40.9912 
 341   0.0000       1.517129        41.2832 
 342   0.0000       1.517169        41.2843 
 343   0.0000       1.529321        41.6149 
 344   0.0000       1.533538        41.7297 
 345   0.0000       1.533596        41.7313 
 346   0.0000       1.573691        42.8223 
 347   0.0000       1.573725        42.8232 
 348   0.0000       1.603234        43.6262 
 349   0.0000       1.616530        43.9880 
 350   0.0000       1.616795        43.9952 
 351   0.0000       1.670764        45.4638 
 352   0.0000       1.670829        45.4656 
 353   0.0000       1.683021        45.7973 
 354   0.0000       1.708607        46.4935 
 355   0.0000       1.708880        46.5010 
 356   0.0000       1.733917        47.1823 
 357   0.0000       1.733999        47.1845 
 358   0.0000       1.741157        47.3793 
 359   0.0000       1.741263        47.3822 
 360   0.0000       1.757140        47.8142 
 361   0.0000       1.763373        47.9838 
 362   0.0000       1.769511        48.1508 
 363   0.0000       1.808311        49.2066 
 364   0.0000       1.828207        49.7480 
 365   0.0000       1.828239        49.7489 
 366   0.0000       1.855925        50.5023 
 367   0.0000       1.864457        50.7345 
 368   0.0000       1.865101        50.7520 
 369   0.0000       1.883467        51.2517 
 370   0.0000       1.883495        51.2525 
 371   0.0000       1.888847        51.3981 
 372   0.0000       1.888936        51.4006 
 373   0.0000       1.947074        52.9826 
 374   0.0000       1.952067        53.1184 
 375   0.0000       1.973761        53.7088 
 376   0.0000       1.973796        53.7097 
 377   0.0000       1.974706        53.7345 
 378   0.0000       2.002111        54.4802 
 379   0.0000       2.012331        54.7583 
 380   0.0000       2.013096        54.7791 
 381   0.0000       2.014658        54.8216 
 382   0.0000       2.015168        54.8355 
 383   0.0000       2.027167        55.1620 
 384   0.0000       2.031655        55.2841 
 385   0.0000       2.033058        55.3223 
 386   0.0000       2.033081        55.3229 
 387   0.0000       2.044060        55.6217 
 388   0.0000       2.044147        55.6241 
 389   0.0000       2.046339        55.6837 
 390   0.0000       2.056913        55.9715 
 391   0.0000       2.056976        55.9732 
 392   0.0000       2.109071        57.3907 
 393   0.0000       2.159478        58.7624 
 394   0.0000       2.159603        58.7658 
 395   0.0000       2.231087        60.7110 
 396   0.0000       2.233494        60.7765 
 397   0.0000       2.233602        60.7794 
 398   0.0000       2.237101        60.8746 
 399   0.0000       2.270169        61.7744 
 400   0.0000       2.270397        61.7806 
 401   0.0000       2.336552        63.5808 
 402   0.0000       2.338442        63.6322 
 403   0.0000       2.345338        63.8199 
 404   0.0000       2.345467        63.8234 
 405   0.0000       2.346088        63.8403 
 406   0.0000       2.346840        63.8608 
 407   0.0000       2.360166        64.2234 
 408   0.0000       2.360235        64.2253 
 409   0.0000       2.402197        65.3671 
 410   0.0000       2.424929        65.9857 
 411   0.0000       2.458729        66.9054 
 412   0.0000       2.476226        67.3815 
 413   0.0000       2.480342        67.4935 
 414   0.0000       2.494817        67.8874 
 415   0.0000       2.494902        67.8897 
 416   0.0000       2.558503        69.6204 
 417   0.0000       2.558579        69.6225 
 418   0.0000       2.567132        69.8552 
 419   0.0000       2.576057        70.0981 
 420   0.0000       2.620908        71.3185 
 421   0.0000       2.621232        71.3274 
 422   0.0000       2.621264        71.3282 
 423   0.0000       2.625944        71.4556 
 424   0.0000       2.663719        72.4835 
 425   0.0000       2.663802        72.4857 
 426   0.0000       2.675128        72.7939 
 427   0.0000       2.681760        72.9744 
 428   0.0000       2.682004        72.9810 
 429   0.0000       2.695995        73.3617 
 430   0.0000       2.696004        73.3620 
 431   0.0000       2.745002        74.6953 
 432   0.0000       2.791464        75.9596 
 433   0.0000       2.791483        75.9601 
 434   0.0000       2.821285        76.7711 
 435   0.0000       2.832915        77.0875 
 436   0.0000       2.855647        77.7061 
 437   0.0000       2.860016        77.8250 
 438   0.0000       2.860035        77.8255 
 439   0.0000       2.874294        78.2135 
 440   0.0000       2.874311        78.2140 
 441   0.0000       2.885567        78.5203 
 442   0.0000       2.910247        79.1919 
 443   0.0000       2.910287        79.1929 
 444   0.0000       2.919264        79.4372 
 445   0.0000       2.919285        79.4378 
 446   0.0000       2.922915        79.5365 
 447   0.0000       2.923559        79.5541 
 448   0.0000       2.967923        80.7613 
 449   0.0000       2.987018        81.2809 
 450   0.0000       2.987130        81.2839 
 451   0.0000       2.993194        81.4489 
 452   0.0000       2.994161        81.4753 
 453   0.0000       3.026103        82.3445 
 454   0.0000       3.043931        82.8296 
 455   0.0000       3.043942        82.8299 
 456   0.0000       3.050801        83.0165 
 457   0.0000       3.063957        83.3745 
 458   0.0000       3.063998        83.3756 
 459   0.0000       3.067573        83.4729 
 460   0.0000       3.109401        84.6111 
 461   0.0000       3.122704        84.9731 
 462   0.0000       3.125456        85.0480 
 463   0.0000       3.149169        85.6933 
 464   0.0000       3.149270        85.6960 
 465   0.0000       3.163095        86.0722 
 466   0.0000       3.250038        88.4380 
 467   0.0000       3.250613        88.4537 
 468   0.0000       3.349511        91.1448 
 469   0.0000       3.349956        91.1569 
 470   0.0000       3.350038        91.1592 
 471   0.0000       3.367333        91.6298 
 472   0.0000       3.391096        92.2764 
 473   0.0000       3.391439        92.2857 
 474   0.0000       3.394587        92.3714 
 475   0.0000       3.394631        92.3726 
 476   0.0000       3.427310        93.2618 
 477   0.0000       3.481006        94.7230 
 478   0.0000       3.481109        94.7258 
 479   0.0000       3.515821        95.6703 
 480   0.0000       3.523819        95.8880 
 481   0.0000       3.534869        96.1887 
 482   0.0000       3.536249        96.2262 
 483   0.0000       3.594612        97.8144 
 484   0.0000       3.594817        97.8199 
 485   0.0000       3.706020       100.8459 
 486   0.0000       3.706036       100.8464 
 487   0.0000       3.710810       100.9763 
 488   0.0000       3.798616       103.3656 
 489   0.0000       3.815853       103.8346 
 490   0.0000       3.815927       103.8367 
 491   0.0000       3.872622       105.3794 
 492   0.0000       4.014115       109.2296 
 493   0.0000       4.127110       112.3044 
 494   0.0000       4.127213       112.3072 
 495   0.0000       4.355628       118.5227 
 496   0.0000       4.355753       118.5261 
 497   0.0000       4.700095       127.8961 
 498   0.0000       4.700289       127.9014 
 499   0.0000       4.715653       128.3195 
 500   0.0000       4.726155       128.6052 
 501   0.0000       4.726180       128.6059 
 502   0.0000       4.750221       129.2601 
 503   0.0000       5.002681       136.1299 
 504   0.0000      23.097281       628.5090 
 505   0.0000      23.428226       637.5144 
 506   0.0000      23.428325       637.5171 
 507   0.0000      23.636434       643.1801 
 508   0.0000      23.636487       643.1815 
 509   0.0000      23.645117       643.4164 
 510   0.0000      23.703737       645.0115 
 511   0.0000      23.816601       648.0827 
 512   0.0000      23.816885       648.0904 
 513   0.0000      23.881334       649.8441 
 514   0.0000      23.881369       649.8451 
 515   0.0000      23.930253       651.1753 
 516   0.0000      24.014447       653.4663 
 517   0.0000      24.030302       653.8978 
 518   0.0000      24.030502       653.9032 
 519   0.0000      24.041198       654.1942 
 520   0.0000      24.041336       654.1980 
 521   0.0000      24.042534       654.2306 
 522   0.0000      24.636317       670.3883 
 523   0.0000      24.636371       670.3897 
 524   0.0000      24.640832       670.5111 
 525   0.0000      24.642654       670.5607 
 526   0.0000      24.642683       670.5615 
 527   0.0000      24.657271       670.9585 

                    ********************************
                    * MULLIKEN POPULATION ANALYSIS *
                    ********************************

-----------------------
MULLIKEN ATOMIC CHARGES
-----------------------
   0 C :   -0.486026
   1 C :   -0.449776
   2 C :    0.989426
   3 C :   -0.186055
   4 C :   -0.199970
   5 C :    0.826745
   6 C :   -0.598568
   7 C :   -0.161468
   8 C :    0.868359
   9 C :   -0.128796
  10 C :   -0.771312
  11 C :    1.427153
  12 C :   -0.118934
  13 C :   -0.366092
  14 C :    0.727098
  15 C :   -0.545274
  16 C :   -0.272283
  17 C :    1.649962
  18 C :    0.855774
  19 C :   -1.800197
  20 C :   -0.431671
  21 C :    1.341080
  22 C :   -2.421035
  23 C :    0.251860
Sum of atomic charges:    0.0000000

--------------------------------
MULLIKEN REDUCED ORBITAL CHARGES
--------------------------------
  0 C s       :     4.138368  s :     4.138368
      pz      :     0.953510  p :     2.293712
      px      :     0.686792
      py      :     0.653410
      dz2     :     0.003572  d :     0.053946
      dxz     :     0.009096
      dyz     :     0.010673
      dx2y2   :     0.018544
      dxy     :     0.012061
  1 C s       :     4.027922  s :     4.027922
      pz      :     0.952982  p :     2.367904
      px      :     0.688994
      py      :     0.725927
      dz2     :     0.003569  d :     0.053951
      dxz     :     0.014893
      dyz     :     0.004877
      dx2y2   :     0.013707
      dxy     :     0.016906
  2 C s       :     1.995064  s :     1.995064
      pz      :     1.023490  p :     2.927813
      px      :    -0.058865
      py      :     1.963188
      dz2     :     0.004723  d :     0.087697
      dxz     :     0.015172
      dyz     :     0.007941
      dx2y2   :     0.033403
      dxy     :     0.026458
  3 C s       :     3.869575  s :     3.869575
      pz      :     0.953584  p :     2.262537
      px      :     0.616385
      py      :     0.692568
      dz2     :     0.003569  d :     0.053942
      dxz     :     0.015019
      dyz     :     0.004750
      dx2y2   :     0.013430
      dxy     :     0.017174
  4 C s       :     3.839268  s :     3.839268
      pz      :     0.952909  p :     2.306755
      px      :     0.644962
      py      :     0.708885
      dz2     :     0.003568  d :     0.053946
      dxz     :     0.009383
      dyz     :     0.010385
      dx2y2   :     0.018557
      dxy     :     0.012053
  5 C s       :     2.119376  s :     2.119376
      pz      :     1.023347  p :     2.966190
      px      :     1.561918
      py      :     0.380924
      dz2     :     0.004720  d :     0.087690
      dxz     :     0.009819
      dyz     :     0.013285
      dx2y2   :     0.028031
      dxy     :     0.031835
  6 C s       :     4.229053  s :     4.229053
      pz      :     0.953380  p :     2.315560
      px      :     0.760010
      py      :     0.602169
      dz2     :     0.003570  d :     0.053955
      dxz     :     0.005546
      dyz     :     0.014227
      dx2y2   :     0.013936
      dxy     :     0.016677
  7 C s       :     3.873884  s :     3.873884
      pz      :     0.953151  p :     2.233631
      px      :     0.683600
      py      :     0.596880
      dz2     :     0.003567  d :     0.053953
      dxz     :     0.005384
      dyz     :     0.014388
      dx2y2   :     0.013652
      dxy     :     0.016962
  8 C s       :     2.208629  s :     2.208629
      pz      :     1.023292  p :     2.835326
      px      :     1.406351
      py      :     0.405683
      dz2     :     0.004722  d :     0.087686
      dxz     :     0.009669
      dyz     :     0.013442
      dx2y2   :     0.028353
      dxy     :     0.031500
[...]
 761   91047.3    109.8      0.00005  -0.00098  -0.00272   0.00001
 762   91076.7    109.8      0.00004   0.00000  -0.00002   0.00099
 763   91136.8    109.7     -0.00012  -0.00004  -0.00009  -0.00266
 764   91229.5    109.6     -0.00219  -0.00208   0.00165   0.00001
 765   91245.6    109.6     -0.01956  -0.00012   0.00005  -0.00053
 766   91247.7    109.6     -0.00143  -0.00038  -0.00122   0.00000
 767   91250.7    109.6      0.00138  -0.00180   0.00018  -0.00020
 768   91262.4    109.6     -0.00696  -0.00004   0.00002   0.00306
 769   91292.7    109.5      0.00165  -0.00011  -0.00006   0.00528
 770   91438.7    109.4     -0.00011   0.00011   0.00040   0.00022
 771   91450.8    109.3      0.00087  -0.01618   0.04164  -0.00004
 772   91478.5    109.3     -0.00684   0.15626   0.03396   0.00018
 773   91495.4    109.3      0.03026  -0.36997   0.16917   0.00003
 774   91510.4    109.3      0.01140   0.48645   0.27898   0.00002
 775   91523.2    109.3      0.00607  -0.13736   0.55883   0.00005
 776   91669.0    109.1     -0.00177   0.00013   0.00034   0.00343
 777   91678.3    109.1      0.00188   0.00881  -0.01819  -0.00006
 778   91869.2    108.9     -0.00027   0.00120  -0.01212  -0.00006
 779   91890.3    108.8      0.00022   0.00360  -0.00042  -0.00018
 780   91900.8    108.8      0.00080  -0.00373  -0.00628   0.00021
 781   91924.1    108.8     -0.00022   0.00177  -0.00179   0.00031
 782   92004.1    108.7      0.00065   0.00011  -0.00001  -0.01920
 783   92008.9    108.7      0.00023  -0.00001  -0.00001   0.04080
 784   92074.4    108.6      0.00002  -0.00000   0.00002  -0.02094
 785   92135.3    108.5     -0.00151   0.00006   0.00000  -1.10770
 786   92147.8    108.5     -0.00685  -0.00007   0.00003   0.11071
 787   92152.0    108.5      0.00099   0.00001  -0.00003   0.22100
 788   92224.8    108.4      0.00008  -0.00005   0.00008   0.00371
 789   92227.1    108.4     -0.00016  -0.00010   0.00005   0.01751
 790   92239.8    108.4     -0.00005   0.00070   0.00403  -0.00009
 791   92376.9    108.3     -0.00896   0.16964   0.32835   0.00012
 792   92377.8    108.3      0.00463   0.01215   0.00410  -0.00103
 793   92379.2    108.2     -0.00486   0.32850  -0.16754   0.00016
 794   92398.6    108.2      0.00028   0.00114  -0.00055  -0.02261
 795   92500.8    108.1      0.00003  -0.00010   0.00000  -0.00204
 796   92582.1    108.0      0.00006   0.01574   0.00087  -0.00001
 797   92613.3    108.0      0.00014   0.00199  -0.00108   0.00009
 798   92661.0    107.9      0.00017  -0.01281  -0.00461   0.00003
 799   92677.9    107.9     -0.00035  -0.02192   0.00954  -0.00007
 800   92679.6    107.9     -0.00002   0.01553   0.01570  -0.00002
 801   92685.4    107.9     -0.00002   0.00663   0.00344   0.00004
 802   92718.5    107.9      0.00029   0.02290   0.00434   0.00007
 803   92776.9    107.8      0.00005  -0.00064  -0.00415   0.00000
 804   92863.0    107.7      0.00011   0.02041  -0.01637   0.00001
 805   92870.1    107.7      0.00010   0.10391  -0.07757   0.00004
 806   92872.0    107.7     -0.00075   0.07995   0.10429  -0.00000
 807   92896.5    107.6     -0.00006   0.00327   0.00446   0.00008
 808   92989.0    107.5      0.00049   0.00138   0.00022   0.00219
 809   92989.0    107.5     -0.00036   0.00416   0.00044  -0.00076
 810   92996.0    107.5      0.00002  -0.00004  -0.00001  -0.00344
 811   93005.2    107.5      0.00003  -0.00298   0.00809  -0.00006
 812   93010.7    107.5      0.00052  -0.00004   0.00532  -0.00019
 813   93028.8    107.5      0.00227  -0.00010   0.00013   0.15088
 814   93133.5    107.4     -0.00236  -0.00351  -0.00197  -0.00007
 815   93183.3    107.3     -0.00090  -0.03578   0.01494   0.00001
 816   93204.8    107.3      0.00268   0.00182   0.00417  -0.00256
 817   93206.6    107.3     -0.00360  -0.07276  -0.14662  -0.00014
 818   93208.0    107.3      0.00037  -0.00302  -0.00358   0.00268
 819   93218.2    107.3      0.00519  -0.18890   0.06477  -0.00000
 820   93239.9    107.3      0.00054  -0.06858  -0.22108   0.00002
 821   93248.5    107.2      0.00251   0.22191  -0.07704   0.00004
 822   93252.5    107.2      0.00254  -0.06543   0.03840   0.00005
 823   93259.2    107.2      0.00142  -0.04173  -0.15171  -0.00005
 824   93288.4    107.2     -0.00443  -0.00030   0.00003   0.00471
 825   93289.9    107.2     -0.00141  -0.00011  -0.00007   0.00173
 826   93298.5    107.2     -0.00052  -0.00032   0.00037   0.00097
 827   93358.8    107.1     -0.00008   0.00005   0.00002   0.00153
 828   93455.9    107.0     -0.00031   0.00468   0.00048   0.00014
 829   93628.2    106.8      0.00021  -0.00004  -0.00015  -0.00007
 830   93633.7    106.8      0.00009  -0.00009  -0.00003  -0.00427
 831   93686.5    106.7      0.00015  -0.00515  -0.00246   0.00000
 832   93715.5    106.7      0.00046   0.00474  -0.00803   0.00007
 833   93807.7    106.6      0.00242   0.00085   0.00014  -0.00457
 834   93819.9    106.6      0.00005  -0.07922  -0.08596   0.00018
 835   93820.8    106.6     -0.00143  -0.08639   0.06924  -0.00006
 836   93855.3    106.5     -0.00109  -0.04857  -0.27901  -0.00013
 837   93856.9    106.5      0.00010   0.27606  -0.05037  -0.00002
 838   93889.4    106.5      0.00027   0.00015   0.00069   0.00002
 839   93907.1    106.5      0.00217  -0.00322   0.00798   0.00001
 840   93926.4    106.5     -0.00283   0.00007  -0.00007   0.00858
 841   93944.3    106.4     -0.00153  -0.00356  -0.00448   0.00009
 842   94078.3    106.3      0.00008  -0.00012   0.00005  -0.01186
 843   94097.0    106.3      0.00019   0.00404  -0.00014   0.00005
 844   94174.2    106.2      0.00017  -0.07038  -0.01004  -0.00019
 845   94177.8    106.2     -0.00329   0.00959  -0.07130  -0.00014
 846   94241.2    106.1      0.01628  -0.00005  -0.00000   1.25466
 847   94245.7    106.1     -0.00085   0.00188  -0.00028  -0.00424
 848   94379.1    106.0     -0.00048  -0.00000  -0.00005  -0.01225
 849   94412.3    105.9     -0.00065  -0.00007  -0.00006   0.00975
 850   94465.1    105.9      0.00038   0.00008  -0.00001  -0.04336
 851   94472.4    105.9     -0.00314  -0.00002  -0.00003   0.06462
 852   94508.8    105.8      0.00162   0.00001  -0.00004  -0.01252
 853   94510.2    105.8     -0.00116  -0.00000   0.00004  -0.00029
 854   94571.0    105.7     -0.00026   0.00000  -0.00001   0.01418
 855   94579.9    105.7     -0.00012  -0.00001  -0.00002   0.00148
 856   94583.2    105.7     -0.00001   0.00005   0.00001  -0.00094
 857   94641.1    105.7     -0.00154  -0.00513  -0.00595   0.00022
 858   94656.5    105.6      0.00002  -0.00585   0.00183   0.00008
 859   94677.5    105.6     -0.00008   0.00025  -0.00145  -0.00002
 860   94731.8    105.6     -0.00913  -0.00002   0.00007  -0.00521
 861   94736.5    105.6      0.00958   0.00008   0.00001  -0.00209
 862   94964.8    105.3      0.00026  -0.00002  -0.00007   0.00054
 863   95025.5    105.2      0.00038  -0.00009  -0.00007  -0.01067
 864   95040.7    105.2      0.00156  -0.00003  -0.00002   0.00067
 865   95049.7    105.2      0.00183   0.00003   0.00005   0.00330
 866   95101.4    105.2      0.00031  -0.00006  -0.00002  -0.00025
 867   95255.4    105.0      0.00042  -0.00006   0.00007   0.00135
 868   95282.3    105.0      0.00022  -0.00007  -0.00009   0.00484
 869   95286.5    104.9      0.00126  -0.00173   0.00157  -0.00012
 870   95288.8    104.9      0.00051  -0.00150  -0.00044  -0.00013
 871   95314.0    104.9     -0.00070   0.00003   0.00008  -0.00082
 872   95355.7    104.9      0.00172   0.06431   0.02009  -0.00006
 873   95368.6    104.9     -0.00177   0.01214  -0.01863  -0.00001
 874   95377.7    104.8      0.00080   0.01338  -0.04083  -0.00003
 875   95395.7    104.8     -0.00038   0.00086  -0.00351  -0.00015
 876   95398.7    104.8      0.00019  -0.00311  -0.00040   0.00011
 877   95445.1    104.8     -0.00026   0.02855   0.00851   0.00007
 878   95513.0    104.7      0.00362  -0.00007  -0.00002   0.05007
 879   95527.8    104.7     -0.00495   0.00005  -0.00005   0.07691
 880   95605.7    104.6      0.01642   0.00194   0.00146   0.00038
 881   95646.6    104.6     -0.01094  -0.00006   0.00000   0.39978
 882   95689.6    104.5      0.07020   0.00046  -0.00005  -0.03995
 883   95690.9    104.5      0.06171  -0.00049   0.00005   0.02076
 884   95694.9    104.5     -0.13373   0.04858  -0.00479   0.00045
 885   95706.0    104.5      0.00033  -0.00209   0.00018   0.00020
 886   95708.8    104.5     -0.00042   0.00215   0.00098   0.00103
 887   95768.8    104.4     -0.04023   0.12517  -0.00604   0.00011
 888   95792.9    104.4      0.06153   0.00033  -0.00009   0.10113
 889   95832.6    104.3      0.02157   0.10558  -0.08621   0.00010
 890   95860.4    104.3     -0.05608  -0.02676  -0.17645   0.00021
 891   95892.0    104.3     -0.01529   0.00028  -0.00053  -0.09649
 892   95906.6    104.3      0.02662  -0.00009  -0.00033  -0.01956
 893   95911.9    104.3      0.11098  -0.01169   0.00049  -0.00109
 894   95914.3    104.3     -0.13071  -0.00057  -0.00009   0.03505
 895   95931.4    104.2     -0.00021  -0.02852  -0.02338  -0.00017
 896   95961.3    104.2      0.00155   0.04450   0.01340  -0.00002
 897   95972.4    104.2     -0.00945   0.00023  -0.00013  -0.01013
 898   96014.8    104.2     -0.00101   0.00011   0.00023   0.00843
 899   96043.8    104.1      0.00069   0.00683  -0.02479   0.00016
 900   96100.8    104.1      0.00264   0.00004  -0.00028   0.03888
 901   96197.0    104.0      0.06901  -0.00089  -0.00080  -0.00494
 902   96210.2    103.9     -0.57756   0.00552  -0.00298   0.00613
 903   96212.0    103.9      0.66767   0.54943  -0.30340  -0.00010
 904   96238.7    103.9     -0.12986  -0.37432  -0.58796  -0.00003
 905   96340.2    103.8     -0.03250  -0.20926   0.27067  -0.00001
 906   96364.3    103.8     -0.00240  -0.00006  -0.00014  -0.00071
 907   96382.1    103.8      0.00317  -0.00005   0.00050   0.01505
 908   96460.0    103.7      0.00827   0.00010   0.00007  -0.01455
 909   96494.7    103.6      0.00867  -0.00011   0.00015  -0.00668
 910   96508.6    103.6     -0.47150  -0.00761  -0.00198   0.00738
 911   96511.1    103.6      0.49465   0.18891   0.04505   0.00046
 912   96524.0    103.6      0.01039   0.01793   0.00180   0.00006
 913   96528.2    103.6     -0.00771  -0.00981  -0.00294   0.00176
 914   96528.9    103.6     -0.00027   0.00037  -0.00000  -0.03157
 915   96539.0    103.6      0.00286   0.00005   0.00011  -0.00383
 916   96572.9    103.5     -0.01162   0.00036   0.00011  -0.01582
 917   96598.2    103.5     -0.02602  -0.00448   0.00661   0.00010
 918   96613.3    103.5      0.03927   0.00006  -0.00003   0.04661
 919   96625.9    103.5     -0.00076   0.00008  -0.00005   0.00200
 920   96680.8    103.4      0.00025  -0.00003  -0.00002   0.00830
 921   96686.0    103.4     -0.00209  -0.00001  -0.00005  -0.01288
 922   96733.6    103.4     -0.01364  -0.00008   0.00014   0.00964
 923   96812.6    103.3     -0.00034   0.00003  -0.00356  -0.00003
 924   96817.4    103.3      0.00337   0.00348  -0.00234  -0.00013
 925   96823.5    103.3     -0.01608  -0.00026   0.00010  -0.01343
 926   96904.5    103.2      0.00459   0.00007   0.00009   0.17834
 927   96967.6    103.1     -0.00110  -0.00028   0.00410  -0.00003
 928   96973.4    103.1     -0.00017   0.00007   0.00315   0.00008
 929   96979.2    103.1      0.00115   0.00014   0.02187  -0.00007
 930   96988.6    103.1      0.00140   0.00373   0.04887  -0.00010
 931   97016.2    103.1     -0.00301  -0.02709  -0.02121   0.00059
 932   97021.3    103.1     -0.00278   0.00009  -0.00004   0.08428
 933   97028.7    103.1     -0.00123  -0.00014  -0.00020   0.01245
 934   97037.6    103.1      0.00457   0.03653   0.01809  -0.00003
 935   97152.1    102.9     -0.00552  -0.00002  -0.00002   0.14088
 936   97189.9    102.9     -0.00395  -0.00001   0.00008   0.16135
 937   97217.7    102.9      0.00787   0.00010   0.00008   0.07593
 938   97270.3    102.8      0.00645  -0.00031  -0.00252   0.00444
 939   97276.6    102.8     -0.00395  -0.00002   0.00006  -0.44997
 940   97291.4    102.8      0.00027   0.02312  -0.03924  -0.00093
 941   97450.5    102.6      0.00453   0.04855   0.00211   0.00011
 942   97511.4    102.6      0.01455  -0.00017   0.00003  -0.00598
 943   97579.4    102.5      0.00618  -0.02054   0.00303  -0.00001
 944   97584.3    102.5     -0.00363   0.00017   0.00002  -0.00154
 945   97624.1    102.4     -0.00176   0.01224  -0.00595   0.00004
 946   97639.6    102.4     -0.00387  -0.00321  -0.01194  -0.00007
 947   97659.8    102.4      0.00350   0.00004  -0.00001  -0.01011
 948   97832.7    102.2      0.00062   0.00552  -0.00740   0.00004
 949   97890.9    102.2     -0.00813  -0.00806  -0.00145   0.00007
 950   97940.5    102.1      0.00063   0.00001  -0.00001   0.00314
 951   97981.6    102.1      0.02734   0.00018   0.00011  -0.00148
 952   98023.7    102.0      0.10201   0.00028  -0.00005  -0.00892
 953   98037.6    102.0      0.00289   0.08078  -0.05756  -0.00002
 954   98068.5    102.0     -0.07635  -0.05785  -0.04748  -0.00002
 955   98116.5    101.9      0.00548   0.00165  -0.07753   0.00005
 956   98194.8    101.8      0.40141   0.00212  -0.00424   0.00920
 957   98198.0    101.8     -0.48719   0.10441  -0.25085  -0.00021
 958   98241.0    101.8     -0.02486   0.21966   0.02303  -0.00007
 959   98264.7    101.8      0.02274   0.04144   0.09696  -0.00003
 960   98292.9    101.7      0.00162   0.03330  -0.00086   0.00002
 961   98323.8    101.7      0.00321   0.00006  -0.00016  -0.05842
 962   98366.9    101.7      0.01032  -0.03157  -0.05147  -0.00001
 963   98368.4    101.7     -0.01503  -0.00032  -0.00041   0.00988
 964   98402.9    101.6      0.00216  -0.00328   0.00224  -0.00013
 965   98422.6    101.6      0.03225  -0.00006   0.00023   0.00595
 966   98432.1    101.6      0.01260   0.00023  -0.00013  -0.00311
 967   98486.2    101.5      0.01652  -0.03087   0.03769  -0.00009
 968   98495.8    101.5      0.00684  -0.07224  -0.05122  -0.00008
 969   98510.0    101.5      0.01850   0.00042  -0.00139   0.00507
 970   98515.1    101.5     -0.07241  -0.06861   0.08297   0.00001
 971   98519.7    101.5      0.08623   0.00051  -0.00094  -0.00548
 972   98522.3    101.5     -0.04454  -0.00065   0.00110   0.00083
 973   98571.2    101.4     -0.00752  -0.00008  -0.00012   0.02051
 974   98578.9    101.4     -0.00098  -0.00001  -0.00002   0.02867
 975   98620.2    101.4      0.00652   0.00007  -0.00002   0.03070
 976   98834.8    101.2      0.01388  -0.00009  -0.00017   0.27067
 977   98851.6    101.2      0.00315  -0.00003   0.00008  -0.04334
 978   98878.0    101.1     -0.00824   0.00078   0.00384  -0.00011
 979   98960.7    101.1     -0.00025  -0.00004  -0.00010   0.01100
 980   98965.1    101.0     -0.00094  -0.00002  -0.00012  -0.01240
 981   98976.0    101.0     -0.00027  -0.00007   0.00007   0.02128
 982   98995.7    101.0      0.00049   0.00487  -0.00279   0.00002
 983   99014.7    101.0     -0.00251   0.00003   0.00014   0.02661
 984   99095.0    100.9     -0.00236  -0.00017  -0.00017   0.02285
 985   99144.5    100.9     -0.00067   0.00006   0.00016   0.00237
 986   99312.8    100.7     -0.00138  -0.01084  -0.00952   0.00000
 987   99363.1    100.6      0.00278  -0.00026  -0.00015   0.01215
 988   99390.9    100.6      0.00489   0.00001  -0.00002   0.02150
 989   99397.0    100.6      0.04704   0.00018   0.00019   0.00962
 990   99398.8    100.6     -0.00153  -0.00651   0.02728   0.00003
 991   99423.6    100.6     -0.00784  -0.02335  -0.01220  -0.00014
 992   99497.7    100.5      0.02674   0.26164   0.10070   0.00024
 993   99510.9    100.5      0.06595   0.50620  -0.22226  -0.00006
 994   99517.7    100.5      0.15934   0.01584   0.01306  -0.02157
 995   99521.2    100.5     -0.03187   0.14718   0.55302   0.00080
 996   99557.5    100.4     -0.13163   0.00214  -0.00162   0.11381
 997   99574.9    100.4      0.00231   0.00009  -0.00021   0.14460
 998   99661.5    100.3     -6.42541  -0.07023   0.01203   0.02949
 999   99661.6    100.3      5.68849  -0.07944   0.02405  -0.02472
 1000   99661.9    100.3      0.57657  -0.02147  -0.10894  -0.00188

Total run time:    13672.363 sec

           *** ORCA-CIS/TD-DFT FINISHED WITHOUT ERROR ***

Maximum memory used throughout the entire CIS-calculation: 4439.5 MB

-----------------------
CIS/TD-DFT TOTAL ENERGY
-----------------------

    E(SCF)  =   -913.544645104 Eh
    DE(CIS) =      0.097947282 Eh (Root  1)
    ----------------------------- ---------
    E(tot)  =   -913.446697821 Eh



-------------------------------------------------------------------------------
                          DFT DISPERSION CORRECTION                            
                                                                               
                                 DFTD4 V2.5                                    
-------------------------------------------------------------------------------
The B3LYP functional is recognized
Active option DFTDOPT                   ...         5   

Starting D4
-------------------------   ----------------
Dispersion correction           -0.088389756
-------------------------   ----------------


-------------------------   --------------------
FINAL SINGLE POINT ENERGY      -913.535087577674
-------------------------   --------------------


                            ***************************************
                            *     ORCA property calculations      *
                            ***************************************

                                    ---------------------
                                    Active property flags
                                    ---------------------
   (+) Dipole Moment


------------------------------------------------------------------------------
                       ORCA ELECTRIC PROPERTIES CALCULATION
------------------------------------------------------------------------------

Dipole Moment Calculation                       ... on
Quadrupole Moment Calculation                   ... off
Polarizability Calculation                      ... off
GBWName                                         ... loss_all_hydrogen_atoms_spectra.gbw
Electron density                                ... loss_all_hydrogen_atoms_spectra.scfp
The origin for moment calculation is the CENTER OF MASS  = ( 0.000100, -0.001823 -0.000387)

-------------
DIPOLE MOMENT
-------------
                                X             Y             Z
Electronic contribution:      0.00029       0.00075       0.00000
Nuclear contribution   :      0.00000      -0.00000      -0.00000
                        -----------------------------------------
Total Dipole Moment    :      0.00029       0.00075       0.00000
                        -----------------------------------------
Magnitude (a.u.)       :      0.00080
Magnitude (Debye)      :      0.00205



--------------------
Rotational spectrum 
--------------------
 
Rotational constants in cm-1:     0.012387     0.012385     0.006193 
Rotational constants in MHz :   371.353181   371.307534   185.665178 

 Dipole components along the rotational axes: 
x,y,z [a.u.] :    -0.000350     0.000725     0.000000 
x,y,z [Debye]:    -0.000890     0.001842     0.000001 

 

Timings for individual modules:

Sum of individual times         ...    14336.453 sec (= 238.941 min)
GTO integral calculation        ...        0.675 sec (=   0.011 min)   0.0 %
SCF iterations                  ...      663.228 sec (=  11.054 min)   4.6 %
CIS module                      ...    13672.550 sec (= 227.876 min)  95.4 %
                             ****ORCA TERMINATED NORMALLY****
TOTAL RUN TIME: 0 days 3 hours 58 minutes 57 seconds 234 msec
