
                                 *****************
                                 * O   R   C   A *
                                 *****************

                                            #,                                       
                                            ###                                      
                                            ####                                     
                                            #####                                    
                                            ######                                   
                                           ########,                                 
                                     ,,################,,,,,                         
                               ,,#################################,,                 
                          ,,##########################################,,             
                       ,#########################################, ''#####,          
                    ,#############################################,,   '####,        
                  ,##################################################,,,,####,       
                ,###########''''           ''''###############################       
              ,#####''   ,,,,##########,,,,          '''####'''          '####       
            ,##' ,,,,###########################,,,                        '##       
           ' ,,###''''                  '''############,,,                           
         ,,##''                                '''############,,,,        ,,,,,,###''
      ,#''                                            '''#######################'''  
     '                                                          ''''####''''         
             ,#######,   #######,   ,#######,      ##                                
            ,#'     '#,  ##    ##  ,#'     '#,    #''#        ######   ,####,        
            ##       ##  ##   ,#'  ##            #'  '#       #        #'  '#        
            ##       ##  #######   ##           ,######,      #####,   #    #        
            '#,     ,#'  ##    ##  '#,     ,#' ,#      #,         ##   #,  ,#        
             '#######'   ##     ##  '#######'  #'      '#     #####' # '####'        



                  #######################################################
                  #                        -***-                        #
                  #          Department of theory and spectroscopy      #
                  #    Directorship and core code : Frank Neese         #
                  #        Max Planck Institute fuer Kohlenforschung    #
                  #                Kaiser Wilhelm Platz 1               #
                  #                 D-45470 Muelheim/Ruhr               #
                  #                      Germany                        #
                  #                                                     #
                  #                  All rights reserved                #
                  #                        -***-                        #
                  #######################################################



                         Program Version 5.0.4 -  RELEASE  -

 With contributions from (in alphabetic order):
   Daniel Aravena         : Magnetic Suceptibility
   Michael Atanasov       : Ab Initio Ligand Field Theory (pilot matlab implementation)
   Alexander A. Auer      : GIAO ZORA, VPT2 properties, NMR spectrum
   Ute Becker             : Parallelization
   Giovanni Bistoni       : ED, misc. LED, open-shell LED, HFLD
   Martin Brehm           : Molecular dynamics
   Dmytro Bykov           : SCF Hessian
   Vijay G. Chilkuri      : MRCI spin determinant printing, contributions to CSF-ICE
   Dipayan Datta          : RHF DLPNO-CCSD density
   Achintya Kumar Dutta   : EOM-CC, STEOM-CC
   Dmitry Ganyushin       : Spin-Orbit,Spin-Spin,Magnetic field MRCI
   Miquel Garcia          : C-PCM and meta-GGA Hessian, CC/C-PCM, Gaussian charge scheme
   Yang Guo               : DLPNO-NEVPT2, F12-NEVPT2, CIM, IAO-localization
   Andreas Hansen         : Spin unrestricted coupled pair/coupled cluster methods
   Benjamin Helmich-Paris : MC-RPA, TRAH-SCF, COSX integrals
   Lee Huntington         : MR-EOM, pCC
   Robert Izsak           : Overlap fitted RIJCOSX, COSX-SCS-MP3, EOM
   Marcus Kettner         : VPT2
   Christian Kollmar      : KDIIS, OOCD, Brueckner-CCSD(T), CCSD density, CASPT2, CASPT2-K
   Simone Kossmann        : Meta GGA functionals, TD-DFT gradient, OOMP2, MP2 Hessian
   Martin Krupicka        : Initial AUTO-CI
   Lucas Lang             : DCDCAS
   Marvin Lechner         : AUTO-CI (C++ implementation), FIC-MRCC
   Dagmar Lenk            : GEPOL surface, SMD
   Dimitrios Liakos       : Extrapolation schemes; Compound Job, initial MDCI parallelization
   Dimitrios Manganas     : Further ROCIS development; embedding schemes
   Dimitrios Pantazis     : SARC Basis sets
   Anastasios Papadopoulos: AUTO-CI, single reference methods and gradients
   Taras Petrenko         : DFT Hessian,TD-DFT gradient, ASA, ECA, R-Raman, ABS, FL, XAS/XES, NRVS
   Peter Pinski           : DLPNO-MP2, DLPNO-MP2 Gradient
   Christoph Reimann      : Effective Core Potentials
   Marius Retegan         : Local ZFS, SOC
   Christoph Riplinger    : Optimizer, TS searches, QM/MM, DLPNO-CCSD(T), (RO)-DLPNO pert. Triples
   Tobias Risthaus        : Range-separated hybrids, TD-DFT gradient, RPA, STAB
   Michael Roemelt        : Original ROCIS implementation
   Masaaki Saitow         : Open-shell DLPNO-CCSD energy and density
   Barbara Sandhoefer     : DKH picture change effects
   Avijit Sen             : IP-ROCIS
   Kantharuban Sivalingam : CASSCF convergence, NEVPT2, FIC-MRCI
   Bernardo de Souza      : ESD, SOC TD-DFT
   Georgi Stoychev        : AutoAux, RI-MP2 NMR, DLPNO-MP2 response
   Willem Van den Heuvel  : Paramagnetic NMR
   Boris Wezisla          : Elementary symmetry handling
   Frank Wennmohs         : Technical directorship


 We gratefully acknowledge several colleagues who have allowed us to
 interface, adapt or use parts of their codes:
   Stefan Grimme, W. Hujo, H. Kruse, P. Pracht,  : VdW corrections, initial TS optimization,
                  C. Bannwarth, S. Ehlert          DFT functionals, gCP, sTDA/sTD-DF
   Ed Valeev, F. Pavosevic, A. Kumar             : LibInt (2-el integral package), F12 methods
   Garnet Chan, S. Sharma, J. Yang, R. Olivares  : DMRG
   Ulf Ekstrom                                   : XCFun DFT Library
   Mihaly Kallay                                 : mrcc  (arbitrary order and MRCC methods)
   Jiri Pittner, Ondrej Demel                    : Mk-CCSD
   Frank Weinhold                                : gennbo (NPA and NBO analysis)
   Christopher J. Cramer and Donald G. Truhlar   : smd solvation model
   Lars Goerigk                                  : TD-DFT with DH, B97 family of functionals
   V. Asgeirsson, H. Jonsson                     : NEB implementation
   FAccTs GmbH                                   : IRC, NEB, NEB-TS, DLPNO-Multilevel, CI-OPT
                                                   MM, QMMM, 2- and 3-layer-ONIOM, Crystal-QMMM,
                                                   LR-CPCM, SF, NACMEs, symmetry and pop. for TD-DFT,
                                                   nearIR, NL-DFT gradient (VV10), updates on ESD,
                                                   ML-optimized integration grids
   S Lehtola, MJT Oliveira, MAL Marques          : LibXC Library
   Liviu Ungur et al                             : ANISO software


 Your calculation uses the libint2 library for the computation of 2-el integrals
 For citations please refer to: http://libint.valeyev.net

 Your ORCA version has been built with support for libXC version: 5.1.0
 For citations please refer to: https://tddft.org/programs/libxc/

 This ORCA versions uses:
   CBLAS   interface :  Fast vector & matrix operations
   LAPACKE interface :  Fast linear algebra routines
   Shared memory     :  Shared parallel matrices


Your calculation utilizes the atom-pairwise dispersion correction
based on tight binding partial charges (D4)
Cite in your paper:
E.Caldeweyher, C.Bannwarth, S.Grimme, J.Chem.Phys., (2017), 147, 034112.
E.Caldeweyher, S.Ehlert, A.Hansen, H.Neugebauer, S.Grimme, J.Chem.Phys., (2018), in progress.
   

================================================================================

----- Orbital basis set information -----
Your calculation utilizes the basis: 6-311+G**
   H, Li - Ne  : R. Krishnan, J. S. Binkley, R. Seeger and J. A. Pople, J. Chem. Phys. 72, 650 (1980).
   Na - Ar     : A. D. McLean and G. S. Chandler J. Chem. Phys. 72, 5639, (1980).
   K  - Ca     : J.-P. Blaudeau, M. P. McGrath, L. A. Curtiss and L. Radom, J. Chem. Phys. 107, 5016 (1997).
   Ga - Kr     : L. A. Curtiss, M. P. McGrath, J.-P. Blandeau, N. E. Davis, R. C. Binning and L. Radom, J. Chem. Phys. 103, 6104 (1995).
   Pol./Diff.
   H, Li - Cl  : T. Clark, J. Chandrasekhar and P. v. R. Schleyer, J. Comp. Chem. 4, 294 (1983).
   H - Ne      : M. J. Frisch, J. A. Pople and J. S. Binkley, J. Chem. Phys. 80, 3265 (1984).

----- AuxJ basis set information -----
Your calculation utilizes the auxiliary basis: def2/J
   F. Weigend, Phys. Chem. Chem. Phys. 8, 1057 (2006).

================================================================================
                                        WARNINGS
                       Please study these warnings very carefully!
================================================================================

INFO   : Checking CIS options ...

WARNING: CIS/ROCIS methods need fully converged wavefunctions
  ===> : Setting SCFConvForced true
         You can overwrite this default with %scf ConvForced false 


INFO   : the flag for use of the SHARK integral package has been found!

================================================================================
                                       INPUT FILE
================================================================================
NAME = loss_eight_seven_eleven_twelve_spectra.inp
|  1> !b3lyp 6-311+g** d4 pal4
|  2> 
|  3> %tddft
|  4>   nroots 1000
|  5>   end
|  6>   
|  7> * xyz 0 1
|  8>   C   2.46587829059602     -2.85209622660715     -0.00000844596753
|  9>   C   1.27197164780743     -3.52578101192475     -0.00004034802603
| 10>   C   0.03645370574860     -2.83450454250956     -0.00011677634452
| 11>   C   -1.20102635723416     -3.53637879251611     -0.00014997387580
| 12>   C   -2.39043304592483     -2.86934011818053     -0.00022349952043
| 13>   C   -2.43666448247310     -1.44744607070083     -0.00026897404534
| 14>   C   -3.67080317539930     -0.75371305793192     -0.00034540917133
| 15>   C   -3.71857039652198      0.61628420705963     -0.00038922807348
| 16>   C   -2.52579505679011      1.36522394088415     -0.00035831341465
| 17>   C   -2.34876357429714      2.75981916944951     -0.00039302347956
| 18>   C   -1.29469104624543      3.39227666483765     -0.00036439771555
| 19>   C   0.01968255538226      2.89263030704620     -0.00029063389281
| 20>   C   1.23388198054622      3.60280451677366     -0.00025839626900
| 21>   C   2.43166290469434      2.93103631407777     -0.00018622645424
| 22>   C   2.45892458583099      1.52467297163542     -0.00014315096996
| 23>   C   3.57060927186722      0.66368955905306     -0.00006839105386
| 24>   C   3.58060663094520     -0.56548846841396     -0.00003076107505
| 25>   C   2.48302355076120     -1.44376459961237     -0.00005150537303
| 26>   C   1.25286252520521     -0.69109976420405     -0.00012943350285
| 27>   C   1.23746498097765      0.75006871154483     -0.00017170589850
| 28>   C   -0.00431752370230      1.44654941846979     -0.00024918629715
| 29>   C   -1.24206241960537      0.70816376985789     -0.00028044241321
| 30>   C   -1.21852163457372     -0.71410581408496     -0.00023756862347
| 31>   C   0.02705358211935     -1.41270161852533     -0.00016005319311
| 32>   H   3.40769403683237     -3.38644203302049      0.00005093405845
| 33>   H   1.25927718467515     -4.61025457616519     -0.00000734188350
| 34>   H   -1.17982001220587     -4.62076383924112     -0.00011572048100
| 35>   H   -3.32669333215855     -3.41685157557390     -0.00024828994037
| 36>   H   -4.58952137659440     -1.33007238665158     -0.00036951857666
| 37>   H   -4.66558027135675      1.14137160397668     -0.00044825036478
| 38>   H   1.20476347029891      4.68513764039469     -0.00029196264127
| 39>   H   3.37031148676954      3.47069713532061     -0.00016145710288
| 40> **                         ****END OF INPUT****
================================================================================

                       ****************************
                       * Single Point Calculation *
                       ****************************

---------------------------------
CARTESIAN COORDINATES (ANGSTROEM)
---------------------------------
  C      2.465878   -2.852096   -0.000008
  C      1.271972   -3.525781   -0.000040
  C      0.036454   -2.834505   -0.000117
  C     -1.201026   -3.536379   -0.000150
  C     -2.390433   -2.869340   -0.000223
  C     -2.436664   -1.447446   -0.000269
  C     -3.670803   -0.753713   -0.000345
  C     -3.718570    0.616284   -0.000389
  C     -2.525795    1.365224   -0.000358
  C     -2.348764    2.759819   -0.000393
  C     -1.294691    3.392277   -0.000364
  C      0.019683    2.892630   -0.000291
  C      1.233882    3.602805   -0.000258
  C      2.431663    2.931036   -0.000186
  C      2.458925    1.524673   -0.000143
  C      3.570609    0.663690   -0.000068
  C      3.580607   -0.565488   -0.000031
  C      2.483024   -1.443765   -0.000052
  C      1.252863   -0.691100   -0.000129
  C      1.237465    0.750069   -0.000172
  C     -0.004318    1.446549   -0.000249
  C     -1.242062    0.708164   -0.000280
  C     -1.218522   -0.714106   -0.000238
  C      0.027054   -1.412702   -0.000160
  H      3.407694   -3.386442    0.000051
  H      1.259277   -4.610255   -0.000007
  H     -1.179820   -4.620764   -0.000116
  H     -3.326693   -3.416852   -0.000248
  H     -4.589521   -1.330072   -0.000370
  H     -4.665580    1.141372   -0.000448
  H      1.204763    4.685138   -0.000292
  H      3.370311    3.470697   -0.000161

----------------------------
CARTESIAN COORDINATES (A.U.)
----------------------------
  NO LB      ZA    FRAG     MASS         X           Y           Z
   0 C     6.0000    0    12.011    4.659835   -5.389681   -0.000016
   1 C     6.0000    0    12.011    2.403678   -6.662761   -0.000076
   2 C     6.0000    0    12.011    0.068888   -5.356437   -0.000221
   3 C     6.0000    0    12.011   -2.269611   -6.682787   -0.000283
   4 C     6.0000    0    12.011   -4.517264   -5.422267   -0.000422
   5 C     6.0000    0    12.011   -4.604629   -2.735277   -0.000508
   6 C     6.0000    0    12.011   -6.936813   -1.424311   -0.000653
   7 C     6.0000    0    12.011   -7.027080    1.164608   -0.000736
   8 C     6.0000    0    12.011   -4.773061    2.579899   -0.000677
   9 C     6.0000    0    12.011   -4.438520    5.215302   -0.000743
  10 C     6.0000    0    12.011   -2.446612    6.410474   -0.000689
  11 C     6.0000    0    12.011    0.037195    5.466279   -0.000549
  12 C     6.0000    0    12.011    2.331699    6.808314   -0.000488
  13 C     6.0000    0    12.011    4.595177    5.538856   -0.000352
  14 C     6.0000    0    12.011    4.646694    2.881214   -0.000271
  15 C     6.0000    0    12.011    6.747474    1.254192   -0.000129
  16 C     6.0000    0    12.011    6.766366   -1.068618   -0.000058
  17 C     6.0000    0    12.011    4.692234   -2.728320   -0.000097
  18 C     6.0000    0    12.011    2.367567   -1.305989   -0.000245
  19 C     6.0000    0    12.011    2.338470    1.417424   -0.000324
  20 C     6.0000    0    12.011   -0.008159    2.733582   -0.000471
  21 C     6.0000    0    12.011   -2.347158    1.338236   -0.000530
  22 C     6.0000    0    12.011   -2.302672   -1.349464   -0.000449
  23 C     6.0000    0    12.011    0.051124   -2.669619   -0.000302
  24 H     1.0000    0     1.008    6.439608   -6.399448    0.000096
  25 H     1.0000    0     1.008    2.379689   -8.712119   -0.000014
  26 H     1.0000    0     1.008   -2.229537   -8.731978   -0.000219
  27 H     1.0000    0     1.008   -6.286539   -6.456914   -0.000469
  28 H     1.0000    0     1.008   -8.672938   -2.513473   -0.000698
  29 H     1.0000    0     1.008   -8.816669    2.156880   -0.000847
  30 H     1.0000    0     1.008    2.276673    8.853627   -0.000552
  31 H     1.0000    0     1.008    6.368966    6.558667   -0.000305

--------------------------------
INTERNAL COORDINATES (ANGSTROEM)
--------------------------------
 C      0   0   0     0.000000000000     0.00000000     0.00000000
 C      1   0   0     1.370862598031     0.00000000     0.00000000
 C      2   1   0     1.415756952361   121.33813926     0.00000000
 C      3   2   1     1.422668046385   121.21178827   179.99998851
 C      4   3   2     1.363682099893   121.15452954   179.99999517
 C      5   4   3     1.422645433708   121.14667730     0.00000000
 C      6   5   4     1.415755562315   121.20343318   179.99999565
 C      7   6   5     1.370829754353   121.33807853   179.99999317
 C      8   7   6     1.408411778185   120.12767403     0.00000000
 C      9   8   7     1.405786612020   129.35907433   179.99998613
 C     10   9   8     1.229256433250   128.19881224   179.99997590
 C     11  10   9     1.406138134378   128.22187048     0.00000000
 C     12  11  10     1.406637001244   128.86320844   179.99993307
 C     13  12  11     1.373299554218   120.39139814   180.00008141
 C     14  13  12     1.406627545614   120.39613689     0.00000000
 C     15  14  13     1.406106426804   128.86776670   180.00003683
 C     16  15  14     1.229218683478   128.22325195   179.99996482
 C     17  16  15     1.405723152320   128.20048388     0.00000000
 C     18  17  16     1.442151347581   109.87345066     0.00000000
 C     19  18  17     1.441250728238   122.07219679     0.00000000
 C     20  19  18     1.423765841018   119.89896381   179.99997020
 C     21  20  19     1.441258406528   119.89467078     0.00000000
 C      6   5   4     1.421850882072   119.18631324     0.00000000
 C      3   2   1     1.421833998344   119.60596114     0.00000000
 H      1   2   3     1.082839943951   120.99658489   179.99994515
 H      2   1   3     1.084547860641   120.10535349   179.99997921
 H      4   3   2     1.084592384172   118.44071170     0.00000000
 H      5   4   3     1.084597676639   120.39710295   179.99998867
 H      7   6   5     1.084542857425   118.55665479     0.00000000
 H      8   7   6     1.082840930571   121.00390291   179.99996354
 H     13  12  11     1.082724747687   118.78189399     0.00000000
 H     14  13  12     1.082725710062   120.81832301   179.99997364

---------------------------
INTERNAL COORDINATES (A.U.)
---------------------------
 C      0   0   0     0.000000000000     0.00000000     0.00000000
 C      1   0   0     2.590554877515     0.00000000     0.00000000
 C      2   1   0     2.675392912157   121.33813926     0.00000000
 C      3   2   1     2.688452987148   121.21178827   179.99998851
 C      4   3   2     2.576985702528   121.15452954   179.99999517
 C      5   4   3     2.688410255383   121.14667730     0.00000000
 C      6   5   4     2.675390285351   121.20343318   179.99999565
 C      7   6   5     2.590492811957   121.33807853   179.99999317
 C      8   7   6     2.661512544558   120.12767403     0.00000000
 C      9   8   7     2.656551699452   129.35907433   179.99998613
 C     10   9   8     2.322958007202   128.19881224   179.99997590
 C     11  10   9     2.657215980437   128.22187048     0.00000000
 C     12  11  10     2.658158702192   128.86320844   179.99993307
 C     13  12  11     2.595160057308   120.39139814   180.00008141
 C     14  13  12     2.658140833640   120.39613689     0.00000000
 C     15  14  13     2.657156061805   128.86776670   180.00003683
 C     16  15  14     2.322886670473   128.22325195   179.99996482
 C     17  16  15     2.656431777998   128.20048388     0.00000000
 C     18  17  16     2.725271090594   109.87345066     0.00000000
 C     19  18  17     2.723569166685   122.07219679     0.00000000
 C     20  19  18     2.690527518357   119.89896381   179.99997020
 C     21  20  19     2.723583676549   119.89467078     0.00000000
 C      6   5   4     2.686908770390   119.18631324     0.00000000
 C      3   2   1     2.686876864769   119.60596114     0.00000000
 H      1   2   3     2.046270940938   120.99658489   179.99994515
 H      2   1   3     2.049498435741   120.10535349   179.99997921
 H      4   3   2     2.049582573021   118.44071170     0.00000000
 H      5   4   3     2.049592574334   120.39710295   179.99998867
 H      7   6   5     2.049488981033   118.55665479     0.00000000
 H      8   7   6     2.046272805379   121.00390291   179.99996354
 H     13  12  11     2.046053251547   118.78189399     0.00000000
 H     14  13  12     2.046055070173   120.81832301   179.99997364

---------------------
BASIS SET INFORMATION
---------------------
There are 2 groups of distinct atoms

 Group   1 Type C   : 12s6p1d contracted to 5s4p1d pattern {63111/3111/1}
 Group   2 Type H   : 5s1p contracted to 3s1p pattern {311/1}

Atom   0C    basis set group =>   1
Atom   1C    basis set group =>   1
Atom   2C    basis set group =>   1
Atom   3C    basis set group =>   1
Atom   4C    basis set group =>   1
Atom   5C    basis set group =>   1
Atom   6C    basis set group =>   1
Atom   7C    basis set group =>   1
Atom   8C    basis set group =>   1
Atom   9C    basis set group =>   1
Atom  10C    basis set group =>   1
Atom  11C    basis set group =>   1
Atom  12C    basis set group =>   1
Atom  13C    basis set group =>   1
Atom  14C    basis set group =>   1
Atom  15C    basis set group =>   1
Atom  16C    basis set group =>   1
Atom  17C    basis set group =>   1
Atom  18C    basis set group =>   1
Atom  19C    basis set group =>   1
Atom  20C    basis set group =>   1
Atom  21C    basis set group =>   1
Atom  22C    basis set group =>   1
Atom  23C    basis set group =>   1
Atom  24H    basis set group =>   2
Atom  25H    basis set group =>   2
Atom  26H    basis set group =>   2
Atom  27H    basis set group =>   2
Atom  28H    basis set group =>   2
Atom  29H    basis set group =>   2
Atom  30H    basis set group =>   2
Atom  31H    basis set group =>   2
---------------------------------
AUXILIARY/J BASIS SET INFORMATION
---------------------------------
There are 2 groups of distinct atoms

 Group   1 Type C   : 12s5p4d2f1g contracted to 6s4p3d1f1g pattern {711111/2111/211/2/1}
 Group   2 Type H   : 5s2p1d contracted to 3s1p1d pattern {311/2/1}

Atom   0C    basis set group =>   1
Atom   1C    basis set group =>   1
Atom   2C    basis set group =>   1
Atom   3C    basis set group =>   1
Atom   4C    basis set group =>   1
Atom   5C    basis set group =>   1
Atom   6C    basis set group =>   1
Atom   7C    basis set group =>   1
Atom   8C    basis set group =>   1
Atom   9C    basis set group =>   1
Atom  10C    basis set group =>   1
Atom  11C    basis set group =>   1
Atom  12C    basis set group =>   1
Atom  13C    basis set group =>   1
Atom  14C    basis set group =>   1
Atom  15C    basis set group =>   1
Atom  16C    basis set group =>   1
Atom  17C    basis set group =>   1
Atom  18C    basis set group =>   1
Atom  19C    basis set group =>   1
Atom  20C    basis set group =>   1
Atom  21C    basis set group =>   1
Atom  22C    basis set group =>   1
Atom  23C    basis set group =>   1
Atom  24H    basis set group =>   2
Atom  25H    basis set group =>   2
Atom  26H    basis set group =>   2
Atom  27H    basis set group =>   2
Atom  28H    basis set group =>   2
Atom  29H    basis set group =>   2
Atom  30H    basis set group =>   2
Atom  31H    basis set group =>   2


           ************************************************************
           *        Program running with 4 parallel MPI-processes     *
           *              working on a common directory               *
           ************************************************************
------------------------------------------------------------------------------
                           ORCA GTO INTEGRAL CALCULATION
                           -- RI-GTO INTEGRALS CHOSEN --
------------------------------------------------------------------------------
------------------------------------------------------------------------------
                   ___                                                        
                  /   \      - P O W E R E D   B Y -                         
                 /     \                                                     
                 |  |  |   _    _      __       _____    __    __             
                 |  |  |  | |  | |    /  \     |  _  \  |  |  /  |          
                  \  \/   | |  | |   /    \    | | | |  |  | /  /          
                 / \  \   | |__| |  /  /\  \   | |_| |  |  |/  /          
                |  |  |   |  __  | /  /__\  \  |    /   |      \           
                |  |  |   | |  | | |   __   |  |    \   |  |\   \          
                \     /   | |  | | |  |  |  |  | |\  \  |  | \   \       
                 \___/    |_|  |_| |__|  |__|  |_| \__\ |__|  \__/        
                                                                              
                      - O R C A' S   B I G   F R I E N D -                    
                                      &                                       
                       - I N T E G R A L  F E E D E R -                       
                                                                              
 v1 FN, 2020, v2 2021                                                         
------------------------------------------------------------------------------


Reading SHARK input file loss_eight_seven_eleven_twelve_spectra.SHARKINP.tmp ... ok
----------------------
SHARK INTEGRAL PACKAGE
----------------------

Number of atoms                             ...     32
Number of basis functions                   ...    576
Number of shells                            ...    272
Maximum angular momentum                    ...      2
Integral batch strategy                     ... SHARK/LIBINT Hybrid
RI-J (if used) integral strategy            ... SPLIT-RIJ (Revised 2003 algorithm where possible)
Printlevel                                  ...      1
Contraction scheme used                     ... SEGMENTED contraction
Coulomb Range Separation                    ... NOT USED
Exchange Range Separation                   ... NOT USED
Finite Nucleus Model                        ... NOT USED
Auxiliary Coulomb fitting basis             ... AVAILABLE
   # of basis functions in Aux-J            ...   1264
   # of shells in Aux-J                     ...    400
   Maximum angular momentum in Aux-J        ...      4
Auxiliary J/K fitting basis                 ... NOT available
Auxiliary Correlation fitting basis         ... NOT available
Auxiliary 'external' fitting basis          ... NOT available
Integral threshold                          ...     1.000000e-10
Primitive cut-off                           ...     1.000000e-11
Primitive pair pre-selection threshold      ...     1.000000e-11

Calculating pre-screening integrals         ... done (  0.1 sec) Dimension = 272
Organizing shell pair data                  ... done (  0.2 sec)
Shell pair information
Total number of shell pairs                 ...     37128
Shell pairs after pre-screening             ...     29869
Total number of primitive shell pairs       ...    127788
Primitive shell pairs kept                  ...     67143
          la=0 lb=0:   7955 shell pairs
          la=1 lb=0:  12356 shell pairs
          la=1 lb=1:   4726 shell pairs
          la=2 lb=0:   2552 shell pairs
          la=2 lb=1:   2043 shell pairs
          la=2 lb=2:    237 shell pairs

Calculating one electron integrals          ... done (  0.1 sec)
Calculating RI/J V-Matrix + Cholesky decomp.... done (  0.1 sec)
Calculating Nuclear repulsion               ... done (  0.0 sec) ENN=   1760.687367782992 Eh

SHARK setup successfully completed in   0.7 seconds

Maximum memory used throughout the entire GTOINT-calculation: 40.9 MB


           ************************************************************
           *        Program running with 4 parallel MPI-processes     *
           *              working on a common directory               *
           ************************************************************
-------------------------------------------------------------------------------
                                 ORCA SCF
-------------------------------------------------------------------------------

------------
SCF SETTINGS
------------
Hamiltonian:
 Density Functional     Method          .... DFT(GTOs)
 Exchange Functional    Exchange        .... B88
   X-Alpha parameter    XAlpha          ....  0.666667
   Becke's b parameter  XBeta           ....  0.004200
 Correlation Functional Correlation     .... LYP
 LDA part of GGA corr.  LDAOpt          .... VWN-5
 Gradients option       PostSCFGGA      .... off
 Hybrid DFT is turned on
   Fraction HF Exchange ScalHFX         ....  0.200000
   Scaling of DF-GGA-X  ScalDFX         ....  0.720000
   Scaling of DF-GGA-C  ScalDFC         ....  0.810000
   Scaling of DF-LDA-C  ScalLDAC        ....  1.000000
   Perturbative correction              ....  0.000000
   Density functional embedding theory  .... OFF
   NL short-range parameter             ....  4.800000
 RI-approximation to the Coulomb term is turned on
   Number of AuxJ basis functions       .... 1264
   RIJ-COSX (HFX calculated with COS-X)).... on


General Settings:
 Integral files         IntName         .... loss_eight_seven_eleven_twelve_spectra
 Hartree-Fock type      HFTyp           .... RHF
 Total Charge           Charge          ....    0
 Multiplicity           Mult            ....    1
 Number of Electrons    NEL             ....  152
 Basis Dimension        Dim             ....  576
 Nuclear Repulsion      ENuc            ....   1760.6873677830 Eh

Convergence Acceleration:
 DIIS                   CNVDIIS         .... on
   Start iteration      DIISMaxIt       ....    12
   Startup error        DIISStart       ....  0.200000
   # of expansion vecs  DIISMaxEq       ....     5
   Bias factor          DIISBfac        ....   1.050
   Max. coefficient     DIISMaxC        ....  10.000
 Trust-Rad. Augm. Hess. CNVTRAH         .... auto
   Auto Start mean grad. ratio tolernc. ....  1.125000
   Auto Start start iteration           ....    20
   Auto Start num. interpolation iter.  ....    10
   Max. Number of Micro iterations      ....    16
   Max. Number of Macro iterations      .... Maxiter - #DIIS iter
   Number of Davidson start vectors     ....     2
   Converg. threshold I  (grad. norm)   ....   5.000e-05
   Converg. threshold II (energy diff.) ....   1.000e-06
   Grad. Scal. Fac. for Micro threshold ....   0.100
   Minimum threshold for Micro iter.    ....   0.010
   NR start threshold (gradient norm)   ....   0.001
   Initial trust radius                 ....   0.400
   Minimum AH scaling param. (alpha)    ....   1.000
   Maximum AH scaling param. (alpha)    .... 1000.000
   Orbital update algorithm             .... Taylor
   White noise on init. David. guess    .... on
   Maximum white noise                  ....   0.010
   Quad. conv. algorithm                .... NR
 SOSCF                  CNVSOSCF        .... on
   Start iteration      SOSCFMaxIt      ....   150
   Startup grad/error   SOSCFStart      ....  0.003300
 Level Shifting         CNVShift        .... on
   Level shift para.    LevelShift      ....    0.2500
   Turn off err/grad.   ShiftErr        ....    0.0010
 Zerner damping         CNVZerner       .... off
 Static damping         CNVDamp         .... on
   Fraction old density DampFac         ....    0.7000
   Max. Damping (<1)    DampMax         ....    0.9800
   Min. Damping (>=0)   DampMin         ....    0.0000
   Turn off err/grad.   DampErr         ....    0.1000
 Fernandez-Rico         CNVRico         .... off

SCF Procedure:
 Maximum # iterations   MaxIter         ....   125
 SCF integral mode      SCFMode         .... Direct
   Integral package                     .... SHARK and LIBINT hybrid scheme
 Reset frequency        DirectResetFreq ....    20
 Integral Threshold     Thresh          ....  1.000e-10 Eh
 Primitive CutOff       TCut            ....  1.000e-11 Eh

Convergence Tolerance:
 Convergence Check Mode ConvCheckMode   .... Total+1el-Energy
 Convergence forced     ConvForced      .... 1
 Energy Change          TolE            ....  1.000e-06 Eh
 1-El. energy change                    ....  1.000e-03 Eh
 Orbital Gradient       TolG            ....  5.000e-05
 Orbital Rotation angle TolX            ....  5.000e-05
 DIIS Error             TolErr          ....  1.000e-06


Diagonalization of the overlap matrix:
Smallest eigenvalue                        ... 2.149e-10
Time for diagonalization                   ...    0.047 sec
Threshold for overlap eigenvalues          ... 1.000e-08
Number of eigenvalues below threshold      ... 5
Smallest eigenvalue above threshold        ... 1.002e-08
Time for construction of square roots      ...    0.045 sec
Total time needed                          ...    0.095 sec

Time for model grid setup =    0.756 sec

------------------------------
INITIAL GUESS: MODEL POTENTIAL
------------------------------
Loading Hartree-Fock densities                     ... done
Calculating cut-offs                               ... done
Initializing the effective Hamiltonian             ... done
Setting up the integral package (SHARK)            ... done
Starting the Coulomb interaction                   ... done (   2.2 sec)
Reading the grid                                   ... done
Mapping shells                                     ... done
Starting the XC term evaluation                    ... done (   0.9 sec)
  promolecular density results
     # of electrons  =    151.982950840
     EX              =   -125.836834755
     EC              =     -5.208011689
     EX+EC           =   -131.044846445
Transforming the Hamiltonian                       ... done (   0.0 sec)
Diagonalizing the Hamiltonian                      ... done (   0.0 sec)
Back transforming the eigenvectors                 ... done (   0.0 sec)
Now organizing SCF variables                       ... done
                      ------------------
                      INITIAL GUESS DONE (   4.1 sec)
                      ------------------
-------------------
DFT GRID GENERATION
-------------------

General Integration Accuracy     IntAcc      ... 4.388
Radial Grid Type                 RadialGrid  ... OptM3 with GC (2021)
Angular Grid (max. ang.)         AngularGrid ... 4 (Lebedev-302)
Angular grid pruning method      GridPruning ... 4 (adaptive)
Weight generation scheme         WeightScheme... Becke
Basis function cutoff            BFCut       ... 1.0000e-10
Integration weight cutoff        WCut        ... 1.0000e-14
Angular grids for H and He will be reduced by one unit
Partially contracted basis set               ... off
Rotationally invariant grid construction     ... off

Total number of grid points                  ...   173329
Total number of batches                      ...     2725
Average number of points per batch           ...       63
Average number of grid points per atom       ...     5417
Time for grid setup =    1.701 sec

--------------------
COSX GRID GENERATION
--------------------

GRIDX 1
-------
General Integration Accuracy     IntAcc      ... 3.816
Radial Grid Type                 RadialGrid  ... OptM3 with GC (2021)
Angular Grid (max. ang.)         AngularGrid ... 1 (Lebedev-50)
Angular grid pruning method      GridPruning ... 4 (adaptive)
Weight generation scheme         WeightScheme... Becke
Basis function cutoff            BFCut       ... 1.0000e-10
Integration weight cutoff        WCut        ... 1.0000e-14
Angular grids for H and He will be reduced by one unit
Partially contracted basis set               ... on
Rotationally invariant grid construction     ... off

Total number of grid points                  ...    21971
Total number of batches                      ...      359
Average number of points per batch           ...       61
Average number of grid points per atom       ...      687
UseSFitting                                  ... on

GRIDX 2
-------
General Integration Accuracy     IntAcc      ... 4.020
Radial Grid Type                 RadialGrid  ... OptM3 with GC (2021)
Angular Grid (max. ang.)         AngularGrid ... 2 (Lebedev-110)
Angular grid pruning method      GridPruning ... 4 (adaptive)
Weight generation scheme         WeightScheme... Becke
Basis function cutoff            BFCut       ... 1.0000e-10
Integration weight cutoff        WCut        ... 1.0000e-14
Angular grids for H and He will be reduced by one unit
Partially contracted basis set               ... on
Rotationally invariant grid construction     ... off

Total number of grid points                  ...    53642
Total number of batches                      ...      858
Average number of points per batch           ...       62
Average number of grid points per atom       ...     1676
UseSFitting                                  ... on

GRIDX 3
-------
General Integration Accuracy     IntAcc      ... 4.338
Radial Grid Type                 RadialGrid  ... OptM3 with GC (2021)
Angular Grid (max. ang.)         AngularGrid ... 3 (Lebedev-194)
Angular grid pruning method      GridPruning ... 4 (adaptive)
Weight generation scheme         WeightScheme... Becke
Basis function cutoff            BFCut       ... 1.0000e-10
Integration weight cutoff        WCut        ... 1.0000e-14
Angular grids for H and He will be reduced by one unit
Partially contracted basis set               ... on
Rotationally invariant grid construction     ... off

Total number of grid points                  ...   116209
Total number of batches                      ...     1832
Average number of points per batch           ...       63
Average number of grid points per atom       ...     3632
UseSFitting                                  ... on

Time for X-Grid setup             =    2.925 sec

--------------
SCF ITERATIONS
--------------
ITER       Energy         Delta-E        Max-DP      RMS-DP      [F,P]     Damp
               ***  Starting incremental Fock matrix formation  ***
  0   -918.4944064722   0.000000000000132.84083120  1.02703854  0.1462883 0.7000
  1   -918.6513544149  -0.1569479427405263996.79093471 40107.60437665  0.0794741 0.7000
                               ***Turning on DIIS***
  2   -917.9349399553   0.71641445964614331343.50001016 98687.97607930  0.0274307 0.0000
  3   -915.8424456015   2.092494353743803573.90884538 8735.44061123  0.0869580 0.0000
  4   -915.9134466767  -0.0710010751291478611.96520406 14647.98124183  0.0576691 0.0000
  5   -915.9373054763  -0.0238587996826624645.31509218 58335.61690216  0.0376085 0.0000
  6   -913.9597374866   1.977567989701154838.75502915 1177.34535484  0.0758620 0.0000
  7   -913.9573728711   0.0023646155566126833.42071413 59743.45280579  0.0733123 0.0000
  8   -913.7836071261   0.1737657449842649214.78522876 26203.97264284  0.0696593 0.0000
  9   -913.7203774746   0.0632296515032337501.48804978 22854.90849655  0.0698303 0.0000
 10   -913.7897214123  -0.0693439377518812172.32083419 84553.12523859  0.0707996 0.0000
 11   -911.7255127074   2.0642087049441114965.15498732 8203.41645958  0.1389389 0.7000
 12   -911.7528733802  -0.0273606728311021378.41261427 10398.62797664  0.1140786 0.7000
 13   -911.8307002070  -0.0778268267892489009.04838292 22678.02276660  0.0876046 0.0000
 14   -911.9935374572  -0.1628372501792098094.49103457 19719.32404386  0.0345204 0.0000
 15   -911.9901219651   0.003415492059916084.59375739 8501.44600468  0.0223932 0.0000
 16   -911.9767240832   0.0133978819301283296.85933039 13185.20699044  0.0092293 0.0000
 17   -911.9909060743  -0.0141819911032183734.37649620 21527.29048520  0.0057602 0.0000
 18   -911.9761964566   0.014709617757955428.01808938 6069.48024056  0.0032564 0.0000
 19   -911.9369318945   0.03926456207210160641.91494551 95252.07900444  0.0021798 0.0000
               *** Restarting incremental Fock matrix formation ***
                                   *** Resetting DIIS ***
 20   -917.0027277179  -5.0657958234449977048.56001808 63780.72731339  0.1326858 0.7000
 21   -917.2264091793  -0.2236814614069486014.27547829 80431.94539970  0.0784125 0.0000

 WARNING: the maximum gradient error descreased on average only by a factor   1.0
          during the last 20 iterations

                      *** Initiating the TRAH-SCF procedure ***


TRAH GRIDX
----------

General Integration Accuracy     IntAcc      ... 3.067
Radial Grid Type                 RadialGrid  ... OptM3 with GC (2021)
Angular Grid (max. ang.)         AngularGrid ... 1 (Lebedev-50)
Angular grid pruning method      GridPruning ... 4 (adaptive)
Weight generation scheme         WeightScheme... Becke
Basis function cutoff            BFCut       ... 1.0000e-10
Integration weight cutoff        WCut        ... 1.0000e-14
Angular grids for H and He will be reduced by one unit
Partially contracted basis set               ... on
Rotationally invariant grid construction     ... off

Total number of grid points                  ...    11840
Total number of batches                      ...      200
Average number of points per batch           ...       59
Average number of grid points per atom       ...      370


TRAH GRID
---------

General Integration Accuracy     IntAcc      ... 3.467
Radial Grid Type                 RadialGrid  ... OptM3 with GC (2021)
Angular Grid (max. ang.)         AngularGrid ... 1 (Lebedev-50)
Angular grid pruning method      GridPruning ... 4 (adaptive)
Weight generation scheme         WeightScheme... Becke
Basis function cutoff            BFCut       ... 1.0000e-10
Integration weight cutoff        WCut        ... 1.0000e-14
Angular grids for H and He will be reduced by one unit
Partially contracted basis set               ... off
Rotationally invariant grid construction     ... off

Total number of grid points                  ...    26609
Total number of batches                      ...      431
Average number of points per batch           ...       61
Average number of grid points per atom       ...      832

 --------------------------------------------------------------------------------------------
   Iter.        energy            ||Error||_2        Shift      TRadius  Mac/Mic        Rej.
 --------------------------------------------------------------------------------------------
WARNING: 175 diagonal Hessian elements are negative!
    0       -915.944962424616     2.261559e+00                     0.400 (TRAH MAcro)   No
WARNING : negative HOMO - LUMO gap : -0.857232
    0     dE    -4.831167e-01     3.093028e+00    -8.4730e-01      0.375 (TRAH MIcro)
    0     dE    -6.783475e-01     8.661591e-01    -3.6309e+00      0.400 (TRAH MIcro)
    0     dE    -6.877136e-01     2.644336e-01    -3.6858e+00      0.400 (TRAH MIcro)
    0     dE    -6.891693e-01     6.664902e-02    -3.6637e+00      0.400 (TRAH MIcro)
    0     dE    -6.892408e-01     5.343241e-02    -3.6642e+00      0.400 (TRAH MIcro)
    0     dE    -6.892413e-01     5.474449e-02    -3.6641e+00      0.400 (TRAH MIcro)
    0     dE    -6.892459e-01     5.380359e-02    -3.6642e+00      0.400 (TRAH MIcro)
    0     dE    -6.892505e-01     5.452873e-02    -3.6647e+00      0.400 (TRAH MIcro)
    0     dE    -6.893223e-01     5.423236e-02    -3.6629e+00      0.400 (TRAH MIcro)
    0     dE    -6.895431e-01     7.477898e-02    -3.6714e+00      0.400 (TRAH MIcro)
    0     dE    -6.895724e-01     8.295632e-02    -3.6723e+00      0.400 (TRAH MIcro)
    0     dE    -6.901315e-01     1.323120e-01    -3.7005e+00      0.400 (TRAH MIcro)
    0     dE    -5.289396e-01     2.030506e-01    -5.2728e+00      0.293 (TRAH MIcro)
    0     dE    -5.264648e-01     9.808895e-02    -5.2842e+00      0.291 (TRAH MIcro)
WARNING: 129 diagonal Hessian elements are negative!
    1       -916.313084167641     1.359107e+00                     0.400 (TRAH MAcro)   No
WARNING : negative HOMO - LUMO gap : -0.659663
    1     dE    -2.845899e-01     2.097130e+00    -5.0107e-01      0.369 (TRAH MIcro)
    1     dE    -4.052799e-01     5.969744e-01    -2.1469e+00      0.400 (TRAH MIcro)
    1     dE    -4.156152e-01     1.651475e-01    -2.3197e+00      0.400 (TRAH MIcro)
    1     dE    -4.175518e-01     1.181877e-01    -2.3439e+00      0.400 (TRAH MIcro)
    1     dE    -3.229014e-01     2.366124e-01    -3.1592e+00      0.299 (TRAH MIcro)
    1     dE    -3.185436e-01     3.332504e-02    -3.1712e+00      0.293 (TRAH MIcro)
    1     dE    -3.184484e-01     2.597951e-02    -3.1715e+00      0.293 (TRAH MIcro)
    1     dE    -3.184042e-01     3.631999e-02    -3.1718e+00      0.293 (TRAH MIcro)
    1     dE    -3.184290e-01     4.227872e-02    -3.1718e+00      0.293 (TRAH MIcro)
    1     dE    -3.185051e-01     4.753242e-02    -3.1721e+00      0.293 (TRAH MIcro)
    1     dE    -3.187390e-01     6.840387e-02    -3.1732e+00      0.293 (TRAH MIcro)
    1     dE    -3.187393e-01     6.806413e-02    -3.1732e+00      0.293 (TRAH MIcro)
    1     dE    -3.188407e-01     6.680837e-02    -3.1734e+00      0.293 (TRAH MIcro)
    1     dE    -3.190511e-01     6.709405e-02    -3.1739e+00      0.294 (TRAH MIcro)
WARNING: 97 diagonal Hessian elements are negative!
    2       -916.569477312540     8.290877e-01                     0.480 (TRAH MAcro)   No
WARNING : negative HOMO - LUMO gap : -0.535994
    2     dE    -1.851441e-01     1.524657e+00    -3.2180e-01      0.388 (TRAH MIcro)
    2     dE    -3.161885e-01     4.606141e-01    -1.3047e+00      0.478 (TRAH MIcro)
    2     dE    -3.417475e-01     2.511549e-01    -1.6213e+00      0.480 (TRAH MIcro)
    2     dE    -3.343308e-01     2.533828e-01    -2.1373e+00      0.445 (TRAH MIcro)
    2     dE    -3.789257e-01     1.361547e-01    -2.2690e+00      0.480 (TRAH MIcro)
    2     dE    -1.376302e-01     2.994513e-01    -3.5280e+00      0.191 (TRAH MIcro)
    2     dE    -1.379712e-01     4.021725e-02    -3.5590e+00      0.190 (TRAH MIcro)
    2     dE    -1.379747e-01     3.057116e-02    -3.5604e+00      0.189 (TRAH MIcro)
    2     dE    -1.379745e-01     3.197403e-02    -3.5606e+00      0.189 (TRAH MIcro)
    2     dE    -1.379745e-01     3.214414e-02    -3.5607e+00      0.189 (TRAH MIcro)
    2     dE    -1.379744e-01     3.210955e-02    -3.5607e+00      0.189 (TRAH MIcro)
    2     dE    -1.379744e-01     3.212329e-02    -3.5607e+00      0.189 (TRAH MIcro)
    2     dE    -1.379959e-01     3.668092e-02    -3.5608e+00      0.189 (TRAH MIcro)
    2     dE    -1.380087e-01     3.890518e-02    -3.5609e+00      0.189 (TRAH MIcro)
WARNING: 75 diagonal Hessian elements are negative!
    3       -916.720553836841     6.099444e-01                     0.576 (TRAH MAcro)   No
WARNING : negative HOMO - LUMO gap : -0.472823
    3     dE    -1.568606e-01     1.677298e+00    -2.6415e-01      0.433 (TRAH MIcro)
    3     dE    -1.702508e-01     1.741883e+00    -2.8059e-01      0.462 (TRAH MIcro)
    3     dE    -2.857895e-01     1.104945e+00    -8.0580e-01      0.576 (TRAH MIcro)
    3     dE    -3.290353e-01     7.784918e-01    -1.1403e+00      0.576 (TRAH MIcro)
    3     dE    -4.263070e-01     2.872805e-01    -1.9767e+00      0.576 (TRAH MIcro)
    3     dE    -4.368387e-01     1.831135e-01    -2.0781e+00      0.576 (TRAH MIcro)
    3     dE    -1.212469e-01     3.109252e-01    -2.7346e+00      0.217 (TRAH MIcro)
    3     dE    -1.203221e-01     1.078762e-01    -2.7562e+00      0.214 (TRAH MIcro)
    3     dE    -1.202148e-01     9.869092e-02    -2.7574e+00      0.214 (TRAH MIcro)
    3     dE    -1.202329e-01     9.946288e-02    -2.7575e+00      0.214 (TRAH MIcro)
    3     dE    -1.202791e-01     9.964163e-02    -2.7578e+00      0.214 (TRAH MIcro)
    3     dE    -1.203831e-01     1.029733e-01    -2.7584e+00      0.214 (TRAH MIcro)
    3     dE    -1.203825e-01     1.027809e-01    -2.7584e+00      0.214 (TRAH MIcro)
    3     dE    -1.203931e-01     1.079014e-01    -2.7597e+00      0.214 (TRAH MIcro)
WARNING: 53 diagonal Hessian elements are negative!
    4       -916.886286136986     5.572417e-01                     0.691 (TRAH MAcro)   No
WARNING : negative HOMO - LUMO gap : -0.411671
    4     dE    -3.335602e-01     2.420177e+00    -5.9460e-01      0.690 (TRAH MIcro)
    4     dE    -6.036027e-01     4.249702e-01    -1.8928e+00      0.691 (TRAH MIcro)
    4     dE    -4.577513e-01     1.836049e-01    -2.1158e+00      0.564 (TRAH MIcro)
    4     dE    -4.825306e-01     1.246855e-01    -2.1295e+00      0.582 (TRAH MIcro)
    4     dE    -4.886196e-01     9.333953e-02    -2.1330e+00      0.586 (TRAH MIcro)
    4     dE    -4.895046e-01     6.448262e-02    -2.1346e+00      0.586 (TRAH MIcro)
    4     dE    -4.899691e-01     5.127253e-02    -2.1350e+00      0.587 (TRAH MIcro)
    4     dE    -4.895717e-01     5.911946e-02    -2.1352e+00      0.586 (TRAH MIcro)
    4     dE    -4.890182e-01     6.661416e-02    -2.1353e+00      0.586 (TRAH MIcro)
    4     dE    -4.889022e-01     6.820527e-02    -2.1353e+00      0.586 (TRAH MIcro)
    4     dE    -4.889545e-01     6.523051e-02    -2.1355e+00      0.586 (TRAH MIcro)
    4     dE    -4.891563e-01     6.304260e-02    -2.1356e+00      0.586 (TRAH MIcro)
    4     dE    -4.891200e-01     6.900251e-02    -2.1359e+00      0.586 (TRAH MIcro)
    4     dE    -4.894819e-01     7.887357e-02    -2.1363e+00      0.586 (TRAH MIcro)
WARNING: 19 diagonal Hessian elements are negative!
    5       -917.390737863927     8.296041e-01                     0.829 (TRAH MAcro)   No
WARNING : negative HOMO - LUMO gap : -0.228335
    5     dE    -4.621643e-01     3.128124e+00    -6.0406e-01      0.728 (TRAH MIcro)
    5     dE    -6.502714e-01     8.301407e-01    -9.3014e-01      0.829 (TRAH MIcro)
    5     dE    -6.609264e-01     1.278279e-01    -9.9826e-01      0.823 (TRAH MIcro)
    5     dE    -6.675468e-01     8.170993e-02    -1.0015e+00      0.829 (TRAH MIcro)
    5     dE    -6.677696e-01     1.111997e-01    -1.0052e+00      0.829 (TRAH MIcro)
    5     dE    -6.677922e-01     1.173481e-01    -1.0059e+00      0.829 (TRAH MIcro)
    5     dE    -6.678575e-01     1.089401e-01    -1.0064e+00      0.829 (TRAH MIcro)
    5     dE    -6.679777e-01     9.471314e-02    -1.0076e+00      0.829 (TRAH MIcro)
    5     dE    -6.679860e-01     9.656788e-02    -1.0072e+00      0.829 (TRAH MIcro)
    5     dE    -6.679853e-01     9.661276e-02    -1.0072e+00      0.829 (TRAH MIcro)
    5     dE    -6.679946e-01     1.009258e-01    -1.0076e+00      0.829 (TRAH MIcro)
    5     dE    -6.679994e-01     1.008589e-01    -1.0079e+00      0.829 (TRAH MIcro)
    5     dE    -6.679991e-01     1.004714e-01    -1.0080e+00      0.829 (TRAH MIcro)
    5     dE    -6.680027e-01     1.005059e-01    -1.0078e+00      0.829 (TRAH MIcro)
WARNING: 8 diagonal Hessian elements are negative!
    6       -917.916776977826     2.353837e-01                     0.995 (TRAH MAcro)   No
WARNING : negative HOMO - LUMO gap : -0.185863
    6     dE    -1.732014e-03     5.021326e-01    -3.4633e-03      0.015 (TRAH MIcro)
    6     dE    -1.680099e-02     1.795114e-01    -3.2257e-02      0.204 (TRAH MIcro)
    6     dE    -2.525609e-02     4.392410e-01    -4.5338e-02      0.338 (TRAH MIcro)
    6     dE    -1.265579e-01     5.127512e-01    -7.7030e-01      0.536 (TRAH MIcro)
    6     dE    -1.717360e-01     1.868154e-01    -8.4689e-01      0.603 (TRAH MIcro)
    6     dE    -1.687275e-01     7.522329e-02    -8.6152e-01      0.592 (TRAH MIcro)
    6     dE    -1.686896e-01     3.036066e-02    -8.6294e-01      0.591 (TRAH MIcro)
    6     dE    -1.700751e-01     1.810230e-02    -8.6320e-01      0.594 (TRAH MIcro)
    6     dE    -1.708982e-01     1.627483e-02    -8.6324e-01      0.595 (TRAH MIcro)
    6     dE    -1.708964e-01     1.628169e-02    -8.6324e-01      0.595 (TRAH MIcro)
    6     dE    -1.709075e-01     1.633440e-02    -8.6324e-01      0.595 (TRAH MIcro)
    6     dE    -1.708463e-01     1.749123e-02    -8.6325e-01      0.595 (TRAH MIcro)
    6     dE    -1.707159e-01     1.803580e-02    -8.6326e-01      0.595 (TRAH MIcro)
    6     dE    -1.706935e-01     1.797518e-02    -8.6326e-01      0.595 (TRAH MIcro)
WARNING: 1 diagonal Hessian elements are negative!
    7       -918.280335183599     3.893858e-01                     1.194 (TRAH MAcro)   No
WARNING : negative HOMO - LUMO gap : -0.033689
    7     dE    -4.182538e-02     1.369017e+00    -8.0228e-02      0.207 (TRAH MIcro)
    7     dE    -3.354250e-01     1.177892e+00    -3.3878e-01      0.990 (TRAH MIcro)
    7     dE    -4.001528e-01     2.380133e-01    -3.7011e-01      1.078 (TRAH MIcro)
    7     dE    -4.099064e-01     1.248228e-01    -3.7408e-01      1.092 (TRAH MIcro)
    7     dE    -4.106909e-01     8.305332e-02    -3.7426e-01      1.093 (TRAH MIcro)
    7     dE    -4.107699e-01     7.604909e-02    -3.7426e-01      1.093 (TRAH MIcro)
    7     dE    -4.105673e-01     1.177988e-01    -3.7436e-01      1.092 (TRAH MIcro)
    7     dE    -4.110861e-01     1.473743e-01    -3.7460e-01      1.093 (TRAH MIcro)
    7     dE    -4.110445e-01     1.611176e-01    -3.7462e-01      1.093 (TRAH MIcro)
    7     dE    -4.110027e-01     1.666558e-01    -3.7463e-01      1.093 (TRAH MIcro)
    7     dE    -4.113989e-01     2.219382e-01    -3.7498e-01      1.093 (TRAH MIcro)
    7     dE    -4.117066e-01     2.361756e-01    -3.7518e-01      1.093 (TRAH MIcro)
    7     dE    -4.120865e-01     2.220286e-01    -3.7530e-01      1.094 (TRAH MIcro)
    7     dE    -4.121778e-01     2.127119e-01    -3.7533e-01      1.094 (TRAH MIcro)
    8       -918.845899855200     3.468433e-01                     1.433 (TRAH MAcro)   No
    8     dE    -1.695827e-03     5.158646e-01    -3.3913e-03      0.010 (TRAH MIcro)
    8     dE    -1.158444e-02     1.276723e-01    -2.2950e-02      0.098 (TRAH MIcro)
    8     dE    -1.343529e-02     6.853013e-02    -2.6415e-02      0.131 (TRAH MIcro)
    8     dE    -1.380469e-02     1.830268e-02    -2.7055e-02      0.143 (TRAH MIcro)
    8     dE    -1.382960e-02     6.913173e-03    -2.7096e-02      0.144 (TRAH MIcro)
    9       -918.868997342666     1.737888e-02                     1.720 (TRAH MAcro)   No
    9     dE    -1.366386e-05     2.805491e-02    -2.7328e-05      0.002 (TRAH MIcro)
    9     dE    -3.520375e-05     5.807421e-03    -7.0405e-05      0.006 (TRAH MIcro)
    9     dE    -3.684205e-05     3.349914e-03    -7.3681e-05      0.007 (TRAH MIcro)
    9     dE    -3.728128e-05     6.206152e-04    -7.4559e-05      0.007 (TRAH MIcro)
   10       -918.869043630002     8.395172e-04                           (NR   MAcro)
   10     dE    -5.863984e-08     5.119837e-04                           (NR   MIcro)
   10     dE    -9.115692e-08     2.473410e-04                           (NR   MIcro)
   10     dE    -9.579007e-08     6.259648e-05                           (NR   MIcro)
   10     dE    -9.615561e-08     3.279028e-05                           (NR   MIcro)
   10     dE    -9.624239e-08     1.029209e-05                           (NR   MIcro)
   10     dE    -9.624987e-08     4.337707e-06                           (NR   MIcro)
   11       -918.869044016487     1.916640e-04                           (NR   MAcro)
   11     dE    -5.625805e-09     2.869229e-05                           (NR   MIcro)
   11     dE    -5.653290e-09     1.826741e-05                           (NR   MIcro)
   11     dE    -5.668656e-09     4.507322e-06                           (NR   MIcro)
   12       -918.869043704060     8.046988e-05                           (NR   MAcro)
   12     dE    -9.670135e-10     1.202511e-05                           (NR   MIcro)
   12     dE    -9.719584e-10     6.702303e-06                           (NR   MIcro)
   12     dE    -9.735465e-10     2.535213e-06                           (NR   MIcro)
   13       -918.869043826412     3.364399e-05                           (NR   MAcro)

               *****************************************************
               *                     SUCCESS                       *
               *           SCF CONVERGED AFTER 169 CYCLES          *
               *****************************************************

Old exchange energy                            =    -25.469632819 Eh
New exchange energy                            =    -25.469673227 Eh
Exchange energy change after final integration =     -0.000040408 Eh
Total energy after final integration           =   -918.869084234 Eh
Final COS-X integration done in                =    65.363 sec

----------------
TOTAL SCF ENERGY
----------------

Total Energy       :         -918.86908423 Eh          -25003.69895 eV

Components:
Nuclear Repulsion  :         1760.68736778 Eh           47910.73901 eV
Electronic Energy  :        -2679.55645202 Eh          -72914.43796 eV
One Electron Energy:        -4738.20226279 Eh         -128933.03840 eV
Two Electron Energy:         2058.64581077 Eh           56018.60044 eV
Max COSX asymmetry :            0.00042423 Eh               0.01154 eV

Virial components:
Potential Energy   :        -1834.41926170 Eh          -49917.08585 eV
Kinetic Energy     :          915.55017746 Eh           24913.38690 eV
Virial Ratio       :            2.00362504


DFT components:
N(Alpha)           :       76.000187406214 electrons
N(Beta)            :       76.000187406214 electrons
N(Total)           :      152.000374812427 electrons
E(X)               :     -101.263398856688 Eh       
E(C)               :       -6.129151161686 Eh       
E(XC)              :     -107.392550018374 Eh       
DFET-embed. en.    :        0.000000000000 Eh       

---------------
SCF CONVERGENCE
---------------

  Last Energy change         ...   -1.2235e-07  Tolerance :   1.0000e-06
  Last Orbital Gradient      ...    3.3644e-05  Tolerance :   5.0000e-05
  Last Orbital Rotation      ...    2.8982e-05

             **** THE GBW FILE WAS UPDATED (loss_eight_seven_eleven_twelve_spectra.gbw) ****
             **** DENSITY loss_eight_seven_eleven_twelve_spectra.scfp WAS UPDATED ****
             **** ENERGY FILE WAS UPDATED (loss_eight_seven_eleven_twelve_spectra.en.tmp) ****
             **** THE GBW FILE WAS UPDATED (loss_eight_seven_eleven_twelve_spectra.gbw) ****
             **** DENSITY loss_eight_seven_eleven_twelve_spectra.scfp WAS UPDATED ****
----------------
ORBITAL ENERGIES
----------------

  NO   OCC          E(Eh)            E(eV) 
   0   2.0000     -10.221340      -278.1368 
   1   2.0000     -10.221324      -278.1364 
   2   2.0000     -10.220744      -278.1206 
   3   2.0000     -10.220742      -278.1205 
   4   2.0000     -10.211240      -277.8620 
   5   2.0000     -10.210801      -277.8500 
   6   2.0000     -10.208221      -277.7798 
   7   2.0000     -10.208215      -277.7796 
   8   2.0000     -10.203302      -277.6460 
   9   2.0000     -10.202876      -277.6344 
  10   2.0000     -10.199830      -277.5515 
  11   2.0000     -10.199821      -277.5512 
  12   2.0000     -10.193239      -277.3721 
  13   2.0000     -10.192604      -277.3549 
  14   2.0000     -10.191725      -277.3309 
  15   2.0000     -10.191718      -277.3308 
  16   2.0000     -10.190908      -277.3087 
  17   2.0000     -10.190901      -277.3085 
  18   2.0000     -10.189270      -277.2641 
  19   2.0000     -10.188589      -277.2456 
  20   2.0000     -10.186771      -277.1961 
  21   2.0000     -10.186767      -277.1960 
  22   2.0000     -10.184784      -277.1421 
  23   2.0000     -10.184781      -277.1420 
  24   2.0000      -0.925861       -25.1940 
  25   2.0000      -0.891440       -24.2573 
  26   2.0000      -0.889273       -24.1983 
  27   2.0000      -0.843889       -22.9634 
  28   2.0000      -0.842733       -22.9319 
  29   2.0000      -0.822485       -22.3810 
  30   2.0000      -0.796954       -21.6862 
  31   2.0000      -0.778297       -21.1785 
  32   2.0000      -0.760495       -20.6941 
  33   2.0000      -0.754166       -20.5219 
  34   2.0000      -0.729687       -19.8558 
  35   2.0000      -0.729520       -19.8512 
  36   2.0000      -0.655253       -17.8304 
  37   2.0000      -0.655024       -17.8241 
  38   2.0000      -0.641443       -17.4546 
  39   2.0000      -0.637869       -17.3573 
  40   2.0000      -0.631869       -17.1940 
  41   2.0000      -0.584554       -15.9065 
  42   2.0000      -0.554614       -15.0918 
  43   2.0000      -0.550442       -14.9783 
  44   2.0000      -0.547382       -14.8950 
  45   2.0000      -0.531235       -14.4557 
  46   2.0000      -0.528310       -14.3761 
  47   2.0000      -0.490986       -13.3604 
  48   2.0000      -0.489913       -13.3312 
  49   2.0000      -0.477451       -12.9921 
  50   2.0000      -0.462383       -12.5821 
  51   2.0000      -0.460427       -12.5289 
  52   2.0000      -0.452466       -12.3122 
  53   2.0000      -0.445280       -12.1167 
  54   2.0000      -0.442899       -12.0519 
  55   2.0000      -0.429288       -11.6815 
  56   2.0000      -0.424988       -11.5645 
  57   2.0000      -0.406309       -11.0562 
  58   2.0000      -0.404733       -11.0133 
  59   2.0000      -0.403491       -10.9796 
  60   2.0000      -0.397111       -10.8059 
  61   2.0000      -0.390436       -10.6243 
  62   2.0000      -0.390069       -10.6143 
  63   2.0000      -0.353028        -9.6064 
  64   2.0000      -0.352198        -9.5838 
  65   2.0000      -0.350720        -9.5436 
  66   2.0000      -0.349354        -9.5064 
  67   2.0000      -0.334482        -9.1017 
  68   2.0000      -0.291983        -7.9453 
  69   2.0000      -0.286063        -7.7842 
  70   2.0000      -0.280022        -7.6198 
  71   2.0000      -0.278362        -7.5746 
  72   2.0000      -0.269794        -7.3415 
  73   2.0000      -0.267949        -7.2913 
  74   2.0000      -0.223717        -6.0876 
  75   2.0000      -0.221468        -6.0264 
  76   0.0000      -0.086820        -2.3625 
  77   0.0000      -0.086598        -2.3565 
  78   0.0000      -0.076667        -2.0862 
  79   0.0000      -0.070542        -1.9196 
  80   0.0000      -0.035003        -0.9525 
  81   0.0000      -0.027924        -0.7598 
  82   0.0000      -0.019930        -0.5423 
  83   0.0000      -0.009391        -0.2555 
  84   0.0000      -0.000000        -0.0000 
  85   0.0000      -0.000000        -0.0000 
  86   0.0000      -0.000000        -0.0000 
  87   0.0000      -0.000000        -0.0000 
  88   0.0000       0.000000         0.0000 
  89   0.0000       0.000283         0.0077 
  90   0.0000       0.010042         0.2733 
  91   0.0000       0.010822         0.2945 
  92   0.0000       0.012804         0.3484 
  93   0.0000       0.022883         0.6227 
  94   0.0000       0.027789         0.7562 
  95   0.0000       0.034392         0.9358 
  96   0.0000       0.041143         1.1196 
  97   0.0000       0.044400         1.2082 
  98   0.0000       0.045493         1.2379 
  99   0.0000       0.047210         1.2846 
 100   0.0000       0.050275         1.3681 
 101   0.0000       0.055642         1.5141 
 102   0.0000       0.058154         1.5824 
 103   0.0000       0.062812         1.7092 
 104   0.0000       0.065189         1.7739 
 105   0.0000       0.074426         2.0252 
 106   0.0000       0.075278         2.0484 
 107   0.0000       0.078182         2.1274 
 108   0.0000       0.089316         2.4304 
 109   0.0000       0.090611         2.4657 
 110   0.0000       0.093467         2.5434 
 111   0.0000       0.093894         2.5550 
 112   0.0000       0.094490         2.5712 
 113   0.0000       0.098741         2.6869 
 114   0.0000       0.105873         2.8809 
 115   0.0000       0.112642         3.0652 
 116   0.0000       0.116319         3.1652 
 117   0.0000       0.116580         3.1723 
 118   0.0000       0.121766         3.3134 
 119   0.0000       0.124948         3.4000 
 120   0.0000       0.136763         3.7215 
 121   0.0000       0.137669         3.7462 
 122   0.0000       0.137916         3.7529 
 123   0.0000       0.140908         3.8343 
 124   0.0000       0.141934         3.8622 
 125   0.0000       0.144593         3.9346 
 126   0.0000       0.145367         3.9556 
 127   0.0000       0.147279         4.0077 
 128   0.0000       0.150393         4.0924 
 129   0.0000       0.159344         4.3360 
 130   0.0000       0.162568         4.4237 
 131   0.0000       0.166237         4.5235 
 132   0.0000       0.169589         4.6148 
 133   0.0000       0.171023         4.6538 
 134   0.0000       0.174750         4.7552 
 135   0.0000       0.181240         4.9318 
 136   0.0000       0.181493         4.9387 
 137   0.0000       0.188072         5.1177 
 138   0.0000       0.188953         5.1417 
 139   0.0000       0.192171         5.2292 
 140   0.0000       0.194853         5.3022 
 141   0.0000       0.196193         5.3387 
 142   0.0000       0.201853         5.4927 
 143   0.0000       0.202730         5.5166 
 144   0.0000       0.202749         5.5171 
 145   0.0000       0.203861         5.5473 
 146   0.0000       0.205652         5.5961 
 147   0.0000       0.207392         5.6434 
 148   0.0000       0.209569         5.7027 
 149   0.0000       0.218359         5.9419 
 150   0.0000       0.220048         5.9878 
 151   0.0000       0.223362         6.0780 
 152   0.0000       0.228922         6.2293 
 153   0.0000       0.229219         6.2374 
 154   0.0000       0.231341         6.2951 
 155   0.0000       0.234234         6.3738 
 156   0.0000       0.235974         6.4212 
 157   0.0000       0.236014         6.4223 
 158   0.0000       0.240929         6.5560 
 159   0.0000       0.245960         6.6929 
 160   0.0000       0.249333         6.7847 
 161   0.0000       0.252926         6.8825 
 162   0.0000       0.258802         7.0424 
 163   0.0000       0.259887         7.0719 
 164   0.0000       0.262529         7.1438 
 165   0.0000       0.263868         7.1802 
 166   0.0000       0.265897         7.2354 
 167   0.0000       0.267645         7.2830 
 168   0.0000       0.272616         7.4183 
 169   0.0000       0.273748         7.4491 
 170   0.0000       0.277502         7.5512 
 171   0.0000       0.279791         7.6135 
 172   0.0000       0.282397         7.6844 
 173   0.0000       0.286972         7.8089 
 174   0.0000       0.290282         7.8990 
 175   0.0000       0.293702         7.9920 
 176   0.0000       0.299918         8.1612 
 177   0.0000       0.305144         8.3034 
 178   0.0000       0.305812         8.3216 
 179   0.0000       0.308081         8.3833 
 180   0.0000       0.310593         8.4517 
 181   0.0000       0.319309         8.6888 
 182   0.0000       0.321519         8.7490 
 183   0.0000       0.324847         8.8395 
 184   0.0000       0.332899         9.0586 
 185   0.0000       0.344287         9.3685 
 186   0.0000       0.346582         9.4310 
 187   0.0000       0.354845         9.6558 
 188   0.0000       0.359617         9.7857 
 189   0.0000       0.364291         9.9129 
 190   0.0000       0.370961        10.0944 
 191   0.0000       0.381649        10.3852 
 192   0.0000       0.382072        10.3967 
 193   0.0000       0.384336        10.4583 
 194   0.0000       0.390995        10.6395 
 195   0.0000       0.392565        10.6822 
 196   0.0000       0.404630        11.0105 
 197   0.0000       0.409962        11.1556 
 198   0.0000       0.415343        11.3021 
 199   0.0000       0.423549        11.5254 
 200   0.0000       0.433233        11.7889 
 201   0.0000       0.434460        11.8223 
 202   0.0000       0.437192        11.8966 
 203   0.0000       0.443329        12.0636 
 204   0.0000       0.447840        12.1864 
 205   0.0000       0.460603        12.5336 
 206   0.0000       0.472586        12.8597 
 207   0.0000       0.478629        13.0242 
 208   0.0000       0.481167        13.0932 
 209   0.0000       0.486864        13.2482 
 210   0.0000       0.502514        13.6741 
 211   0.0000       0.506510        13.7828 
 212   0.0000       0.508966        13.8497 
 213   0.0000       0.512514        13.9462 
 214   0.0000       0.518110        14.0985 
 215   0.0000       0.523519        14.2457 
 216   0.0000       0.526385        14.3237 
 217   0.0000       0.530789        14.4435 
 218   0.0000       0.530819        14.4443 
 219   0.0000       0.531049        14.4506 
 220   0.0000       0.537070        14.6144 
 221   0.0000       0.538733        14.6597 
 222   0.0000       0.551991        15.0204 
 223   0.0000       0.552504        15.0344 
 224   0.0000       0.554171        15.0798 
 225   0.0000       0.556960        15.1556 
 226   0.0000       0.562990        15.3197 
 227   0.0000       0.569818        15.5055 
 228   0.0000       0.570376        15.5207 
 229   0.0000       0.576105        15.6766 
 230   0.0000       0.585846        15.9417 
 231   0.0000       0.590138        16.0585 
 232   0.0000       0.600497        16.3403 
 233   0.0000       0.604364        16.4456 
 234   0.0000       0.606486        16.5033 
 235   0.0000       0.611138        16.6299 
 236   0.0000       0.611981        16.6529 
 237   0.0000       0.616419        16.7736 
 238   0.0000       0.617787        16.8108 
 239   0.0000       0.619139        16.8476 
 240   0.0000       0.624019        16.9804 
 241   0.0000       0.629057        17.1175 
 242   0.0000       0.630084        17.1455 
 243   0.0000       0.632450        17.2098 
 244   0.0000       0.635383        17.2896 
 245   0.0000       0.637124        17.3370 
 246   0.0000       0.643528        17.5113 
 247   0.0000       0.647871        17.6295 
 248   0.0000       0.654099        17.7989 
 249   0.0000       0.658166        17.9096 
 250   0.0000       0.668367        18.1872 
 251   0.0000       0.669109        18.2074 
 252   0.0000       0.672740        18.3062 
 253   0.0000       0.679858        18.4999 
 254   0.0000       0.681065        18.5327 
 255   0.0000       0.686245        18.6737 
 256   0.0000       0.688588        18.7374 
 257   0.0000       0.694010        18.8850 
 258   0.0000       0.715515        19.4701 
 259   0.0000       0.716829        19.5059 
 260   0.0000       0.718855        19.5610 
 261   0.0000       0.722972        19.6731 
 262   0.0000       0.727684        19.8013 
 263   0.0000       0.734959        19.9992 
 264   0.0000       0.735041        20.0015 
 265   0.0000       0.735986        20.0272 
 266   0.0000       0.737197        20.0601 
 267   0.0000       0.748000        20.3541 
 268   0.0000       0.770316        20.9614 
 269   0.0000       0.770500        20.9664 
 270   0.0000       0.777498        21.1568 
 271   0.0000       0.782963        21.3055 
 272   0.0000       0.783093        21.3091 
 273   0.0000       0.796140        21.6641 
 274   0.0000       0.803048        21.8520 
 275   0.0000       0.816212        22.2102 
 276   0.0000       0.820832        22.3360 
 277   0.0000       0.832715        22.6593 
 278   0.0000       0.870398        23.6847 
 279   0.0000       0.878212        23.8974 
 280   0.0000       0.889125        24.1943 
 281   0.0000       0.902926        24.5699 
 282   0.0000       0.906628        24.6706 
 283   0.0000       0.909021        24.7357 
 284   0.0000       0.913329        24.8530 
 285   0.0000       0.914929        24.8965 
 286   0.0000       0.919907        25.0319 
 287   0.0000       0.925711        25.1899 
 288   0.0000       0.932154        25.3652 
 289   0.0000       0.938980        25.5509 
 290   0.0000       0.946622        25.7589 
 291   0.0000       0.948747        25.8167 
 292   0.0000       0.952952        25.9311 
 293   0.0000       0.959025        26.0964 
 294   0.0000       0.961996        26.1772 
 295   0.0000       0.966420        26.2976 
 296   0.0000       0.977719        26.6051 
 297   0.0000       0.983946        26.7745 
 298   0.0000       0.988842        26.9078 
 299   0.0000       0.990144        26.9432 
 300   0.0000       0.992766        27.0145 
 301   0.0000       0.993227        27.0271 
 302   0.0000       0.995835        27.0980 
 303   0.0000       0.999484        27.1973 
 304   0.0000       1.008556        27.4442 
 305   0.0000       1.017853        27.6972 
 306   0.0000       1.025123        27.8950 
 307   0.0000       1.029529        28.0149 
 308   0.0000       1.038237        28.2519 
 309   0.0000       1.039819        28.2949 
 310   0.0000       1.041924        28.3522 
 311   0.0000       1.047218        28.4963 
 312   0.0000       1.051705        28.6183 
 313   0.0000       1.053107        28.6565 
 314   0.0000       1.058278        28.7972 
 315   0.0000       1.072078        29.1727 
 316   0.0000       1.082963        29.4689 
 317   0.0000       1.088425        29.6175 
 318   0.0000       1.089093        29.6357 
 319   0.0000       1.099519        29.9194 
 320   0.0000       1.108810        30.1723 
 321   0.0000       1.119507        30.4633 
 322   0.0000       1.128334        30.7035 
 323   0.0000       1.145210        31.1628 
 324   0.0000       1.165971        31.7277 
 325   0.0000       1.182687        32.1825 
 326   0.0000       1.186001        32.2727 
 327   0.0000       1.190803        32.4034 
 328   0.0000       1.200099        32.6564 
 329   0.0000       1.204999        32.7897 
 330   0.0000       1.213703        33.0266 
 331   0.0000       1.237061        33.6621 
 332   0.0000       1.243219        33.8297 
 333   0.0000       1.249820        34.0093 
 334   0.0000       1.254372        34.1332 
 335   0.0000       1.275195        34.6998 
 336   0.0000       1.280876        34.8544 
 337   0.0000       1.308080        35.5947 
 338   0.0000       1.320478        35.9320 
 339   0.0000       1.353902        36.8415 
 340   0.0000       1.359615        36.9970 
 341   0.0000       1.383336        37.6425 
 342   0.0000       1.400230        38.1022 
 343   0.0000       1.430391        38.9229 
 344   0.0000       1.433950        39.0198 
 345   0.0000       1.439868        39.1808 
 346   0.0000       1.442107        39.2417 
 347   0.0000       1.460461        39.7412 
 348   0.0000       1.466895        39.9162 
 349   0.0000       1.473938        40.1079 
 350   0.0000       1.477855        40.2145 
 351   0.0000       1.480079        40.2750 
 352   0.0000       1.487461        40.4759 
 353   0.0000       1.489534        40.5323 
 354   0.0000       1.493986        40.6534 
 355   0.0000       1.495487        40.6943 
 356   0.0000       1.498165        40.7671 
 357   0.0000       1.507697        41.0265 
 358   0.0000       1.513370        41.1809 
 359   0.0000       1.537332        41.8329 
 360   0.0000       1.547439        42.1080 
 361   0.0000       1.561427        42.4886 
 362   0.0000       1.567010        42.6405 
 363   0.0000       1.568529        42.6818 
 364   0.0000       1.576641        42.9026 
 365   0.0000       1.582366        43.0584 
 366   0.0000       1.597214        43.4624 
 367   0.0000       1.602990        43.6196 
 368   0.0000       1.603812        43.6419 
 369   0.0000       1.613483        43.9051 
 370   0.0000       1.636423        44.5293 
 371   0.0000       1.656022        45.0626 
 372   0.0000       1.679197        45.6933 
 373   0.0000       1.682549        45.7845 
 374   0.0000       1.695357        46.1330 
 375   0.0000       1.705198        46.4008 
 376   0.0000       1.711431        46.5704 
 377   0.0000       1.711551        46.5737 
 378   0.0000       1.726361        46.9767 
 379   0.0000       1.727065        46.9958 
 380   0.0000       1.728353        47.0309 
 381   0.0000       1.749759        47.6134 
 382   0.0000       1.777296        48.3627 
 383   0.0000       1.778258        48.3889 
 384   0.0000       1.783005        48.5180 
 385   0.0000       1.789944        48.7069 
 386   0.0000       1.818385        49.4808 
 387   0.0000       1.819581        49.5133 
 388   0.0000       1.826920        49.7130 
 389   0.0000       1.871783        50.9338 
 390   0.0000       1.874359        51.0039 
 391   0.0000       1.881291        51.1925 
 392   0.0000       1.883715        51.2585 
 393   0.0000       1.884660        51.2842 
 394   0.0000       1.888801        51.3969 
 395   0.0000       1.891277        51.4643 
 396   0.0000       1.899789        51.6959 
 397   0.0000       1.901185        51.7339 
 398   0.0000       1.903596        51.7995 
 399   0.0000       1.920124        52.2492 
 400   0.0000       1.922433        52.3121 
 401   0.0000       1.931655        52.5630 
 402   0.0000       1.947391        52.9912 
 403   0.0000       1.963731        53.4358 
 404   0.0000       1.968236        53.5584 
 405   0.0000       1.974105        53.7181 
 406   0.0000       1.990011        54.1510 
 407   0.0000       1.997890        54.3653 
 408   0.0000       2.003278        54.5120 
 409   0.0000       2.006722        54.6057 
 410   0.0000       2.014850        54.8269 
 411   0.0000       2.026842        55.1532 
 412   0.0000       2.043864        55.6164 
 413   0.0000       2.049148        55.7602 
 414   0.0000       2.050923        55.8085 
 415   0.0000       2.051587        55.8265 
 416   0.0000       2.059557        56.0434 
 417   0.0000       2.070243        56.3342 
 418   0.0000       2.082766        56.6749 
 419   0.0000       2.092978        56.9528 
 420   0.0000       2.100552        57.1589 
 421   0.0000       2.120455        57.7005 
 422   0.0000       2.132791        58.0362 
 423   0.0000       2.164383        58.8959 
 424   0.0000       2.168669        59.0125 
 425   0.0000       2.175175        59.1895 
 426   0.0000       2.178278        59.2740 
 427   0.0000       2.178599        59.2827 
 428   0.0000       2.217866        60.3512 
 429   0.0000       2.244488        61.0756 
 430   0.0000       2.249620        61.2153 
 431   0.0000       2.304260        62.7021 
[...]
 762   89629.9    111.6      0.00659  -0.03044   0.03637  -0.00123
 763   89683.5    111.5      0.01575  -0.00607  -0.07733  -0.00048
 764   89736.8    111.4      0.02173  -0.01436   0.03686   0.00022
 765   89773.4    111.4     -3.25389  -0.02109  -0.03886   0.13310
 766   89773.7    111.4      3.23824   0.01175   0.02160   0.23942
 767   89818.3    111.3      0.03936  -0.04343   0.04846  -0.00056
 768   89913.5    111.2     -1.59913   0.11624   0.25548   0.00752
 769   89915.1    111.2      1.61452  -0.01615  -0.03358   0.05665
 770   89923.5    111.2     -0.03217  -0.15014  -0.08840  -0.00028
 771   89938.9    111.2     -0.00713  -0.00042   0.04189   0.00012
 772   90002.9    111.1     -0.02691  -0.07405   0.06826  -0.00053
 773   90053.9    111.0      0.02213   0.00048   0.00113  -0.20019
 774   90066.4    111.0      0.08982   0.06390   0.17611   0.00197
 775   90094.8    111.0     -0.15132  -0.00067  -0.00152   0.16986
 776   90119.2    111.0      0.02446  -0.00148  -0.00204  -0.06319
 777   90125.5    111.0      0.03023  -0.09879  -0.11891   0.00000
 778   90204.9    110.9     -0.02781   0.05316  -0.12184  -0.00070
 779   90246.4    110.8     -0.16103   0.13263  -0.04959  -0.00246
 780   90252.0    110.8      0.18068  -0.00402   0.00221  -0.08814
 781   90369.6    110.7      0.00625   0.03633  -0.02743  -0.00014
 782   90403.1    110.6      0.00101   0.03151   0.05847   0.00022
 783   90456.0    110.6      0.00053   0.01076   0.01227  -0.00001
 784   90552.4    110.4      0.00323  -0.08792  -0.02643  -0.00005
 785   90582.2    110.4     -0.01490  -0.00036   0.00016   0.38418
 786   90592.3    110.4      0.03292  -0.17656   0.03476  -0.00023
 787   90602.3    110.4     -0.01077  -0.09270   0.11430  -0.00243
 788   90603.9    110.4     -0.03603   0.00156  -0.00151  -0.16772
 789   90679.8    110.3     -0.10437  -0.00009  -0.00057   0.07365
 790   90693.0    110.3      0.07629  -0.00358   0.07744   0.00024
 791   90780.9    110.2      0.39153   0.00035  -0.00027  -0.51984
 792   90789.2    110.1     -0.25757   0.05841  -0.03437   0.00223
 793   90878.3    110.0     -0.00705   0.02656   0.05114   0.00082
 794   90942.6    110.0      0.10905  -0.07063   0.02360  -0.00210
 795   91019.6    109.9     -0.54146  -0.00079  -0.00064   1.13032
 796   91064.8    109.8     -0.01260  -0.10015  -0.17152  -0.00381
 797   91128.0    109.7      0.00935   0.07085   0.14160   0.00125
 798   91216.5    109.6      0.00845  -0.00009  -0.00009  -0.12174
 799   91241.3    109.6     -0.15312   0.07158  -0.06159  -0.00155
 800   91269.2    109.6     -0.01661   0.11313  -0.03626   0.00047
 801   91293.1    109.5      0.14759   0.05314   0.14857  -0.00156
 802   91331.7    109.5      0.47816  -0.02393  -0.06460  -0.00265
 803   91382.7    109.4      0.14854  -0.00196   0.00105   0.14328
 804   91417.8    109.4      0.16704   0.46027  -0.25398   0.00258
 805   91465.3    109.3     -0.00056   0.00053  -0.00021  -0.01890
 806   91509.7    109.3     -0.18791  -0.00083   0.00301   0.22055
 807   91547.2    109.2     -0.07035  -0.08723  -0.14403   0.00040
 808   91557.2    109.2     -0.07094  -0.00264  -0.00353   0.10555
 809   91598.6    109.2      0.00631   0.00036  -0.00002  -0.00305
 810   91623.2    109.1     -0.11790   0.00518   0.00837  -0.02982
 811   91628.2    109.1      0.09971  -0.09440  -0.17427  -0.00115
 812   91675.0    109.1      0.01469  -0.00149  -0.02150  -0.00029
 813   91683.8    109.1     -0.01329   0.00028  -0.00072  -0.04081
 814   91739.7    109.0     -0.00149   0.00005  -0.00010   0.01812
 815   91791.9    108.9     -0.00257   0.00002  -0.00026  -0.02278
 816   91818.6    108.9     -0.01815  -0.00622   0.01124   0.00034
 817   91862.8    108.9     -0.00640   0.00039  -0.00019   0.03393
 818   91865.0    108.9     -0.00014  -0.00750  -0.02908  -0.00010
 819   91897.5    108.8     -0.04402  -0.00126  -0.00093   0.02864
 820   91936.1    108.8     -0.01447  -0.05772   0.00088   0.00024
 821   91966.4    108.7      0.04507   0.06292   0.18993  -0.00003
 822   91997.7    108.7      0.01744   0.05264   0.07720  -0.00129
 823   92003.3    108.7     -0.03158  -0.00041  -0.00084  -0.03290
 824   92044.3    108.6      0.05641  -0.06047  -0.11957  -0.00110
 825   92058.3    108.6     -0.06484  -0.00038  -0.00058   0.15100
 826   92115.9    108.6     -0.02670  -0.00035  -0.00109  -0.14834
 827   92143.0    108.5     -0.01319   0.00231   0.00596  -0.04424
 828   92145.8    108.5      0.03284   0.05459   0.14946   0.00107
 829   92184.8    108.5      0.00773  -0.00090  -0.00076  -0.15444
 830   92239.8    108.4     -0.05251   0.17534  -0.08879  -0.00098
 831   92266.6    108.4      0.29342  -0.00205   0.00169  -0.15845
 832   92278.2    108.4     -0.14845  -0.13392   0.03269   0.00166
 833   92338.5    108.3      0.00599   0.00409   0.06068  -0.00021
 834   92354.6    108.3      0.00423  -0.00760  -0.00944  -0.00000
 835   92391.7    108.2     -0.06117   0.02312  -0.06517  -0.00031
 836   92412.2    108.2      0.02562   0.00053  -0.00006  -0.01126
 837   92429.6    108.2     -0.02174  -0.11867   0.06307   0.00009
 838   92442.7    108.2     -0.00672   0.03474  -0.04687  -0.00028
 839   92508.3    108.1      0.01998  -0.00109   0.00004  -0.02996
 840   92565.0    108.0     -0.12828   0.00192   0.00005  -0.01843
 841   92569.1    108.0      0.06593   0.16064  -0.00575   0.00069
 842   92641.2    107.9      0.00448  -0.00059   0.00005   0.00333
 843   92667.9    107.9      0.02389   0.00013   0.00050  -0.01377
 844   92676.4    107.9      0.22628   0.01559  -0.02080   0.00358
 845   92679.2    107.9     -0.15580   0.00056  -0.00058  -0.09481
 846   92698.8    107.9     -0.08843   0.00145  -0.00063  -0.07208
 847   92718.7    107.9     -0.05394   0.08123   0.03658   0.00083
 848   92767.8    107.8     -0.03905  -0.09475  -0.06524  -0.00034
 849   92779.2    107.8     -0.05272   0.06279  -0.09193  -0.00058
 850   92819.6    107.7     -0.00618  -0.08308  -0.04393  -0.00048
 851   92860.0    107.7     -0.00266   0.00024   0.00008   0.02610
 852   92915.7    107.6     -1.79687  -0.07563   0.14855   0.00432
 853   92916.5    107.6      2.00733  -0.01523   0.02916  -0.02133
 854   92939.1    107.6     -0.32974   0.20486  -0.18816   0.00029
 855   92947.3    107.6      0.15329   0.00274  -0.00055   0.03296
 856   92975.5    107.6      0.21225   0.23082   0.26742  -0.00261
 857   92982.8    107.5     -0.13021  -0.00259  -0.00326  -0.18001
 858   93067.3    107.4      0.03055  -0.00008   0.00038  -0.21540
 859   93071.6    107.4     -0.12289  -0.03153  -0.00161   0.00102
 860   93084.0    107.4      0.00890   0.04403   0.02602  -0.00069
 861   93129.6    107.4      0.02642   0.09347   0.17443  -0.00048
 862   93142.3    107.4      0.09999   0.07079   0.13400   0.00265
 863   93152.2    107.4      0.02547  -0.00157  -0.00259   0.04569
 864   93171.4    107.3     -0.04630  -0.00003  -0.00034  -0.10499
 865   93178.5    107.3      0.02850  -0.02436  -0.04871  -0.00111
 866   93204.2    107.3     -0.20266   0.04365   0.08656   0.00616
 867   93212.1    107.3      0.16193  -0.00083  -0.00169   0.27034
 868   93240.1    107.3      0.02692  -0.02927  -0.02421   0.00130
 869   93279.6    107.2      0.03956  -0.00070  -0.00011   0.15704
 870   93322.4    107.2      0.02094  -0.10962   0.07033  -0.00024
 871   93336.3    107.1     -0.00149  -0.00005   0.00020  -0.09115
 872   93349.9    107.1     -0.08427   0.00028  -0.00021   0.31515
 873   93385.3    107.1      0.01694  -0.03606  -0.01604   0.00035
 874   93425.9    107.0     -0.01216   0.00016  -0.00044  -0.07432
 875   93439.6    107.0     -0.05638   0.00052  -0.00026   0.28473
 876   93459.9    107.0      0.01623  -0.00016  -0.00073   0.25153
 877   93480.6    107.0     -0.02078   0.02878   0.15993   0.00125
 878   93518.9    106.9      0.01849   0.00027  -0.00001  -0.04629
 879   93525.4    106.9      0.00836  -0.08390  -0.03500  -0.00014
 880   93555.0    106.9     -0.00701  -0.00035   0.00031  -0.08557
 881   93595.4    106.8      0.21302  -0.22908   0.10894   0.00039
 882   93595.9    106.8     -0.08266   0.00117  -0.00035  -0.08834
 883   93675.8    106.8      0.08706  -0.00024   0.00024   0.26716
 884   93689.3    106.7     -0.24875  -0.01553   0.03314   0.00251
 885   93748.1    106.7      0.08744  -0.05146   0.03693   0.00056
 886   93783.3    106.6     -0.10089  -0.00030   0.00062  -0.01863
 887   93815.4    106.6     -0.06771   0.00094   0.00082  -0.01755
 888   93821.6    106.6      0.08337  -0.07122  -0.14576  -0.00042
 889   93831.4    106.6      0.00837  -0.00012  -0.00037   0.11975
 890   93893.6    106.5     -0.02353   0.12301   0.14655  -0.00042
 891   93932.8    106.5     -0.00367   0.00022  -0.00006   0.01632
 892   93972.5    106.4      0.11034   0.11227  -0.05371  -0.00101
 893   94013.3    106.4     -0.08651   0.00041  -0.00036   0.19288
 894   94077.4    106.3     -0.04207   0.00032  -0.00044  -0.03405
 895   94099.6    106.3      0.00176  -0.00024   0.00001   0.07697
 896   94105.2    106.3      0.04214   0.21515  -0.13169  -0.00017
 897   94192.2    106.2     -0.05868   0.18736  -0.09421  -0.00022
 898   94266.6    106.1     -0.06655   0.07075  -0.05138  -0.00107
 899   94278.6    106.1      0.13091   0.00112  -0.00074   0.32433
 900   94336.3    106.0      0.01269   0.04062   0.06923  -0.00089
 901   94367.2    106.0      0.03029  -0.00081  -0.00024  -0.20834
 902   94389.1    105.9     -0.09509   0.17725  -0.14050  -0.00159
 903   94392.9    105.9      0.09467   0.00388  -0.00290   0.07615
 904   94406.6    105.9      0.00944   0.07287  -0.02699  -0.00023
 905   94426.5    105.9     -0.03112  -0.01223  -0.04322   0.00067
 906   94458.2    105.9     -0.04478   0.16051  -0.09731   0.00161
 907   94474.2    105.8     -0.01876   0.00158  -0.00086  -0.25608
 908   94489.6    105.8      0.00796  -0.00046   0.00012  -0.07810
 909   94561.7    105.8     -0.00414  -0.00016   0.00022  -0.04408
 910   94590.0    105.7      0.01231   0.03388  -0.06319  -0.00008
 911   94601.7    105.7     -0.00740   0.00007  -0.00015   0.04617
 912   94662.3    105.6     -0.00111   0.00007  -0.00007   0.01887
 913   94675.7    105.6     -0.00739  -0.06595   0.09691  -0.00009
 914   94706.7    105.6     -0.13500  -0.00058  -0.00047   0.10280
 915   94714.5    105.6      0.16057  -0.06766  -0.02243  -0.00196
 916   94736.0    105.6      0.00985  -0.00022   0.00033   0.03461
 917   94743.5    105.5     -0.01558  -0.00062   0.00019   0.22345
 918   94787.8    105.5      0.04795   0.00018  -0.00010   0.07632
 919   94810.3    105.5      0.04358   0.06858  -0.03537   0.00035
 920   94816.5    105.5     -0.11083  -0.00046   0.00017   0.14032
 921   94843.8    105.4      0.08470   0.00003   0.00020  -0.27641
 922   94885.7    105.4     -0.01371  -0.04778   0.08676   0.00017
 923   94907.2    105.4      0.01608  -0.07692  -0.01355  -0.00006
 924   94955.7    105.3      0.04438   0.00004   0.00030  -0.03892
 925   94985.6    105.3      0.00318   0.00016  -0.00042  -0.01919
 926   94999.1    105.3     -0.02074  -0.02897   0.06215  -0.00035
 927   95037.5    105.2     -0.04475  -0.06564  -0.16453   0.00009
 928   95078.9    105.2      0.02244   0.08364  -0.03475  -0.00033
 929   95123.2    105.1     -0.05328  -0.12906   0.11240   0.00067
 930   95270.7    105.0      0.06489  -0.08478  -0.12274  -0.00015
 931   95273.3    105.0     -0.06372   0.00026   0.00059  -0.02682
 932   95301.9    104.9     -0.00347   0.04916  -0.00159   0.00003
 933   95310.4    104.9     -0.09303   0.00134  -0.00019   0.18893
 934   95318.1    104.9      0.06004   0.15838  -0.03240  -0.00160
 935   95457.0    104.8     -0.01673   0.02230   0.09951   0.00062
 936   95461.9    104.8     -0.02689  -0.00047  -0.00088   0.11887
 937   95483.7    104.7     -0.18878  -0.00101  -0.00168  -0.02271
 938   95487.2    104.7      0.15991   0.07104   0.10566   0.00052
 939   95496.4    104.7     -0.00487   0.00010   0.00037   0.14950
 940   95513.1    104.7      0.06207  -0.13735  -0.31606   0.00033
 941   95529.4    104.7      0.03448   0.21837   0.34853   0.00033
 942   95561.4    104.6     -0.00690   0.00066   0.00101  -0.07044
 943   95589.8    104.6      0.00746   0.00182  -0.05245   0.00050
 944   95627.0    104.6      0.00124   0.00005  -0.00008  -0.00163
 945   95664.1    104.5     -0.04514  -0.11732   0.02144   0.00055
 946   95750.2    104.4      0.02963  -0.08009  -0.15184   0.00009
 947   95752.7    104.4     -0.02333  -0.00200  -0.00355  -0.00840
 948   95775.5    104.4     -0.00664  -0.03730   0.01715   0.00026
 949   95846.1    104.3      0.09582  -0.00065   0.00023   0.10046
 950   95857.2    104.3     -0.05890  -0.05290   0.01468  -0.00146
 951   95908.0    104.3      0.02539  -0.04710  -0.18205  -0.00023
 952   95911.8    104.3      0.02711  -0.03394   0.14496  -0.00017
 953   95915.7    104.3      0.06647  -0.12347   0.02657  -0.00054
 954   95921.5    104.3     -0.02000  -0.00096   0.00128   0.00653
 955   95948.6    104.2     -0.02293   0.00018  -0.00017  -0.05160
 956   95997.3    104.2     -0.00486   0.10291   0.05429   0.00014
 957   96002.8    104.2     -0.01099   0.00012   0.00020  -0.12771
 958   96066.2    104.1      0.02572   0.00027   0.00005   0.06478
 959   96105.9    104.1      0.01214  -0.04046  -0.06147   0.00204
 960   96116.0    104.0      0.02920  -0.00027  -0.00006  -0.30527
 961   96126.9    104.0     -0.00644   0.00035   0.00034   0.08117
 962   96139.2    104.0      0.00065  -0.03090   0.00340   0.00118
 963   96146.0    104.0      0.01332  -0.00013   0.00006   0.08196
 964   96179.7    104.0     -0.00237   0.00031  -0.00021   0.05847
 965   96199.6    104.0     -0.14677  -0.03407   0.16923  -0.00180
 966   96202.4    103.9      0.13455   0.00071   0.00307   0.09556
 967   96227.1    103.9     -0.01556   0.22851  -0.06103  -0.00033
 968   96286.0    103.9     -0.00671   0.08031  -0.17250  -0.00024
 969   96363.2    103.8      0.02899   0.36801  -0.10908   0.00006
 970   96409.0    103.7     -0.01986  -0.04789  -0.10843   0.00010
 971   96457.7    103.7      0.01386  -0.00089   0.00023   0.04576
 972   96502.0    103.6     -0.03142  -0.22507   0.12981  -0.00028
 973   96517.8    103.6      0.01135   0.00043   0.00012  -0.07132
 974   96527.5    103.6     -0.06318   0.16814  -0.09844  -0.00091
 975   96542.8    103.6      0.08073   0.00078   0.00072  -0.30341
 976   96545.1    103.6     -0.01303   0.07252   0.04153   0.00364
 977   96651.8    103.5      0.00180  -0.00005  -0.00047  -0.15541
 978   96673.8    103.4     -0.06417  -0.02401  -0.18192   0.00011
 979   96689.0    103.4      0.13906  -0.00033  -0.00094   0.02566
 980   96720.4    103.4     -0.10927  -0.17173  -0.09475  -0.00019
 981   96773.6    103.3      0.10599  -0.09851  -0.19041   0.00090
 982   96788.7    103.3     -0.04354   0.00008   0.00323   0.04736
 983   96803.8    103.3      0.06127   0.14392   0.08306  -0.00120
 984   96823.6    103.3      0.00464  -0.01922   0.19194  -0.00006
 985   96865.9    103.2     -0.22825   0.03317   0.03892  -0.00160
 986   96897.6    103.2      0.00194   0.01118   0.05879  -0.00645
 987   96905.8    103.2      0.39743   0.00193   0.00352   0.43123
 988   96927.1    103.2      0.14779  -0.05276   0.03949   0.00435
 989   96958.1    103.1     -0.11786  -0.07714   0.01909  -0.00133
 990   96971.0    103.1     -0.06409  -0.11719  -0.26661   0.00268
 991   97012.2    103.1     -0.00994  -0.10766  -0.16976  -0.00016
 992   97037.9    103.1      0.09797  -0.00064   0.00014   0.38166
 993   97059.1    103.0      0.53421  -0.00409   0.00195   0.53304
 994   97064.5    103.0     -0.19601  -0.16081   0.08660  -0.00436
 995   97074.1    103.0     -0.37695  -0.25058   0.13630  -0.00807
 996   97138.9    102.9      0.03788  -0.04450   0.05689   0.01622
 997   97149.0    102.9      0.29470  -0.00440   0.00095   0.45786
 998   97153.1    102.9     -0.42774  -0.07281   0.05635  -0.02509
 999   97190.2    102.9     -0.06569  -0.00404   0.00009   0.00376
 1000   97193.6    102.9      0.08284  -0.17237   0.01147   0.00006

Total run time:    22818.506 sec

           *** ORCA-CIS/TD-DFT FINISHED WITHOUT ERROR ***

Maximum memory used throughout the entire CIS-calculation: 739.7 MB

-----------------------
CIS/TD-DFT TOTAL ENERGY
-----------------------

    E(SCF)  =   -918.869084234 Eh
    DE(CIS) =      0.103578310 Eh (Root  1)
    ----------------------------- ---------
    E(tot)  =   -918.765505924 Eh



-------------------------------------------------------------------------------
                          DFT DISPERSION CORRECTION                            
                                                                               
                                 DFTD4 V2.5                                    
-------------------------------------------------------------------------------
The B3LYP functional is recognized
Active option DFTDOPT                   ...         5   

Starting D4
-------------------------   ----------------
Dispersion correction           -0.099443893
-------------------------   ----------------


-------------------------   --------------------
FINAL SINGLE POINT ENERGY      -918.864949816514
-------------------------   --------------------


                            ***************************************
                            *     ORCA property calculations      *
                            ***************************************

                                    ---------------------
                                    Active property flags
                                    ---------------------
   (+) Dipole Moment


------------------------------------------------------------------------------
                       ORCA ELECTRIC PROPERTIES CALCULATION
------------------------------------------------------------------------------

Dipole Moment Calculation                       ... on
Quadrupole Moment Calculation                   ... off
Polarizability Calculation                      ... off
GBWName                                         ... loss_eight_seven_eleven_twelve_spectra.gbw
Electron density                                ... loss_eight_seven_eleven_twelve_spectra.scfp
The origin for moment calculation is the CENTER OF MASS  = (-0.027641, -0.051336 -0.000387)

-------------
DIPOLE MOMENT
-------------
                                X             Y             Z
Electronic contribution:      3.69621       6.59036      -0.00004
Nuclear contribution   :     -4.13037      -7.36454       0.00004
                        -----------------------------------------
Total Dipole Moment    :     -0.43416      -0.77419       0.00000
                        -----------------------------------------
Magnitude (a.u.)       :      0.88762
Magnitude (Debye)      :      2.25614



--------------------
Rotational spectrum 
--------------------
 
Rotational constants in cm-1:     0.011867     0.011247     0.005774 
Rotational constants in MHz :   355.752167   337.185408   173.110023 

 Dipole components along the rotational axes: 
x,y,z [a.u.] :    -0.887617    -0.000102     0.000000 
x,y,z [Debye]:    -2.256142    -0.000259     0.000001 

 

Timings for individual modules:

Sum of individual times         ...    25155.360 sec (= 419.256 min)
GTO integral calculation        ...        1.054 sec (=   0.018 min)   0.0 %
SCF iterations                  ...     2333.157 sec (=  38.886 min)   9.3 %
CIS module                      ...    22821.149 sec (= 380.352 min)  90.7 %
                             ****ORCA TERMINATED NORMALLY****
TOTAL RUN TIME: 0 days 6 hours 59 minutes 18 seconds 117 msec
