
                                 *****************
                                 * O   R   C   A *
                                 *****************

                                            #,                                       
                                            ###                                      
                                            ####                                     
                                            #####                                    
                                            ######                                   
                                           ########,                                 
                                     ,,################,,,,,                         
                               ,,#################################,,                 
                          ,,##########################################,,             
                       ,#########################################, ''#####,          
                    ,#############################################,,   '####,        
                  ,##################################################,,,,####,       
                ,###########''''           ''''###############################       
              ,#####''   ,,,,##########,,,,          '''####'''          '####       
            ,##' ,,,,###########################,,,                        '##       
           ' ,,###''''                  '''############,,,                           
         ,,##''                                '''############,,,,        ,,,,,,###''
      ,#''                                            '''#######################'''  
     '                                                          ''''####''''         
             ,#######,   #######,   ,#######,      ##                                
            ,#'     '#,  ##    ##  ,#'     '#,    #''#        ######   ,####,        
            ##       ##  ##   ,#'  ##            #'  '#       #        #'  '#        
            ##       ##  #######   ##           ,######,      #####,   #    #        
            '#,     ,#'  ##    ##  '#,     ,#' ,#      #,         ##   #,  ,#        
             '#######'   ##     ##  '#######'  #'      '#     #####' # '####'        



                  #######################################################
                  #                        -***-                        #
                  #          Department of theory and spectroscopy      #
                  #    Directorship and core code : Frank Neese         #
                  #        Max Planck Institute fuer Kohlenforschung    #
                  #                Kaiser Wilhelm Platz 1               #
                  #                 D-45470 Muelheim/Ruhr               #
                  #                      Germany                        #
                  #                                                     #
                  #                  All rights reserved                #
                  #                        -***-                        #
                  #######################################################



                         Program Version 5.0.4 -  RELEASE  -

 With contributions from (in alphabetic order):
   Daniel Aravena         : Magnetic Suceptibility
   Michael Atanasov       : Ab Initio Ligand Field Theory (pilot matlab implementation)
   Alexander A. Auer      : GIAO ZORA, VPT2 properties, NMR spectrum
   Ute Becker             : Parallelization
   Giovanni Bistoni       : ED, misc. LED, open-shell LED, HFLD
   Martin Brehm           : Molecular dynamics
   Dmytro Bykov           : SCF Hessian
   Vijay G. Chilkuri      : MRCI spin determinant printing, contributions to CSF-ICE
   Dipayan Datta          : RHF DLPNO-CCSD density
   Achintya Kumar Dutta   : EOM-CC, STEOM-CC
   Dmitry Ganyushin       : Spin-Orbit,Spin-Spin,Magnetic field MRCI
   Miquel Garcia          : C-PCM and meta-GGA Hessian, CC/C-PCM, Gaussian charge scheme
   Yang Guo               : DLPNO-NEVPT2, F12-NEVPT2, CIM, IAO-localization
   Andreas Hansen         : Spin unrestricted coupled pair/coupled cluster methods
   Benjamin Helmich-Paris : MC-RPA, TRAH-SCF, COSX integrals
   Lee Huntington         : MR-EOM, pCC
   Robert Izsak           : Overlap fitted RIJCOSX, COSX-SCS-MP3, EOM
   Marcus Kettner         : VPT2
   Christian Kollmar      : KDIIS, OOCD, Brueckner-CCSD(T), CCSD density, CASPT2, CASPT2-K
   Simone Kossmann        : Meta GGA functionals, TD-DFT gradient, OOMP2, MP2 Hessian
   Martin Krupicka        : Initial AUTO-CI
   Lucas Lang             : DCDCAS
   Marvin Lechner         : AUTO-CI (C++ implementation), FIC-MRCC
   Dagmar Lenk            : GEPOL surface, SMD
   Dimitrios Liakos       : Extrapolation schemes; Compound Job, initial MDCI parallelization
   Dimitrios Manganas     : Further ROCIS development; embedding schemes
   Dimitrios Pantazis     : SARC Basis sets
   Anastasios Papadopoulos: AUTO-CI, single reference methods and gradients
   Taras Petrenko         : DFT Hessian,TD-DFT gradient, ASA, ECA, R-Raman, ABS, FL, XAS/XES, NRVS
   Peter Pinski           : DLPNO-MP2, DLPNO-MP2 Gradient
   Christoph Reimann      : Effective Core Potentials
   Marius Retegan         : Local ZFS, SOC
   Christoph Riplinger    : Optimizer, TS searches, QM/MM, DLPNO-CCSD(T), (RO)-DLPNO pert. Triples
   Tobias Risthaus        : Range-separated hybrids, TD-DFT gradient, RPA, STAB
   Michael Roemelt        : Original ROCIS implementation
   Masaaki Saitow         : Open-shell DLPNO-CCSD energy and density
   Barbara Sandhoefer     : DKH picture change effects
   Avijit Sen             : IP-ROCIS
   Kantharuban Sivalingam : CASSCF convergence, NEVPT2, FIC-MRCI
   Bernardo de Souza      : ESD, SOC TD-DFT
   Georgi Stoychev        : AutoAux, RI-MP2 NMR, DLPNO-MP2 response
   Willem Van den Heuvel  : Paramagnetic NMR
   Boris Wezisla          : Elementary symmetry handling
   Frank Wennmohs         : Technical directorship


 We gratefully acknowledge several colleagues who have allowed us to
 interface, adapt or use parts of their codes:
   Stefan Grimme, W. Hujo, H. Kruse, P. Pracht,  : VdW corrections, initial TS optimization,
                  C. Bannwarth, S. Ehlert          DFT functionals, gCP, sTDA/sTD-DF
   Ed Valeev, F. Pavosevic, A. Kumar             : LibInt (2-el integral package), F12 methods
   Garnet Chan, S. Sharma, J. Yang, R. Olivares  : DMRG
   Ulf Ekstrom                                   : XCFun DFT Library
   Mihaly Kallay                                 : mrcc  (arbitrary order and MRCC methods)
   Jiri Pittner, Ondrej Demel                    : Mk-CCSD
   Frank Weinhold                                : gennbo (NPA and NBO analysis)
   Christopher J. Cramer and Donald G. Truhlar   : smd solvation model
   Lars Goerigk                                  : TD-DFT with DH, B97 family of functionals
   V. Asgeirsson, H. Jonsson                     : NEB implementation
   FAccTs GmbH                                   : IRC, NEB, NEB-TS, DLPNO-Multilevel, CI-OPT
                                                   MM, QMMM, 2- and 3-layer-ONIOM, Crystal-QMMM,
                                                   LR-CPCM, SF, NACMEs, symmetry and pop. for TD-DFT,
                                                   nearIR, NL-DFT gradient (VV10), updates on ESD,
                                                   ML-optimized integration grids
   S Lehtola, MJT Oliveira, MAL Marques          : LibXC Library
   Liviu Ungur et al                             : ANISO software


 Your calculation uses the libint2 library for the computation of 2-el integrals
 For citations please refer to: http://libint.valeyev.net

 Your ORCA version has been built with support for libXC version: 5.1.0
 For citations please refer to: https://tddft.org/programs/libxc/

 This ORCA versions uses:
   CBLAS   interface :  Fast vector & matrix operations
   LAPACKE interface :  Fast linear algebra routines
   Shared memory     :  Shared parallel matrices


XCFun DFT library Copyright 2009-2010 Ulf Ekstrom and contributors.
See http://admol.org/xcfun for more information.
This is free software; see the source code for copying conditions.
There is ABSOLUTELY NO WARRANTY; not even for MERCHANTABILITY or FITNESS FOR A PARTICULAR PURPOSE.
For details see the documentation.
Scientific users of this library should cite U. Ekstrom, L. Visscher, R. Bast, A. J. Thorvaldsen and K. Ruud;
J.Chem.Theor.Comp. 2010, DOI: 10.1021/ct100117s
XCFun Version 0.99 

================================================================================

----- Orbital basis set information -----
Your calculation utilizes the basis: def2-TZVP
   F. Weigend and R. Ahlrichs, Phys. Chem. Chem. Phys. 7, 3297 (2005).

----- AuxJ basis set information -----
Your calculation utilizes the auxiliary basis: def2/J
   F. Weigend, Phys. Chem. Chem. Phys. 8, 1057 (2006).

================================================================================
                                        WARNINGS
                       Please study these warnings very carefully!
================================================================================


WARNING: your system is open-shell and RHF/RKS was chosen
  ===> : WILL SWITCH to UHF/UKS


WARNING: Geometry Optimization
  ===> : Switching off AutoStart
         For restart on a previous wavefunction, please use MOREAD

WARNING: Minnesota functionals are quite sensitive to the integration grid.
         see SE Wheeler, KN Houk, JCTC 2010, 6, 395,
             N Mardirossian, M Head-Gordon, JCTC 2016, 12, 4303.
         DEFGRID3 seems to be a minimum grid for reliable results with these functionals!
  ===> : Please increase the integration grid!


INFO   : the flag for use of the SHARK integral package has been found!

================================================================================
                                       INPUT FILE
================================================================================
NAME = eight_seven_twelve_position.inp
|  1> !M062X DEF2-TZVP OPT FREQ
|  2> 
|  3> %maxcore 3000
|  4> %pal
|  5> nprocs 5
|  6> end
|  7> 
|  8> %freq
|  9> Temp 298.15,10,20,50,100,6000,8000,10000
| 10> end
| 11> 
| 12> 
| 13> * xyz 0 2
| 14>   C   2.45025911436908     -2.79090177790463     -0.00000982964919
| 15>   C   1.27956958510907     -3.48660258649203     -0.00004173389427
| 16>   C   0.03020658595300     -2.81550364249800     -0.00011862088441
| 17>   C   -1.20107819729747     -3.52526706874898     -0.00015240048714
| 18>   C   -2.38858789470557     -2.86502728739536     -0.00022482001470
| 19>   C   -2.44105509445554     -1.44398386157020     -0.00026954248287
| 20>   C   -3.67663052786843     -0.75322560258363     -0.00034505741295
| 21>   C   -3.72620674307354      0.61012331224561     -0.00038725318909
| 22>   C   -2.53312282987023      1.35934632798929     -0.00035605272073
| 23>   C   -2.34753337498203      2.75391254959518     -0.00038934949593
| 24>   C   -1.29670155377861      3.37861761727772     -0.00036267557578
| 25>   C   0.01685582404701      2.87468391601134     -0.00029170556996
| 26>   C   1.24552120765708      3.56426857632077     -0.00025954932536
| 27>   C   2.41910897755889      2.86883891663109     -0.00018686269248
| 28>   C   2.43513201634147      1.45348005475609     -0.00014272162428
| 29>   C   3.65821453508405      0.72792377916697     -0.00006423037791
| 30>   C   3.67026889114169     -0.63084151991298     -0.00002152358643
| 31>   C   2.45819623267264     -1.37288294365309     -0.00005292192897
| 32>   C   1.23136494255913     -0.68205099072942     -0.00012978920390
| 33>   C   1.21552338299244      0.74291881045426     -0.00017515439035
| 34>   C   -0.02157562885261      1.44516062565708     -0.00024971485033
| 35>   C   -1.25909575897147      0.70970393432854     -0.00028207962759
| 36>   C   -1.23391475435778     -0.71245727770562     -0.00023706797792
| 37>   C   0.01012694395947     -1.40778803226763     -0.00016249723364
| 38>   H   3.39883583341171     -3.31417365841427      0.00004947598548
| 39>   H   1.28571717640132     -4.56990075715492     -0.00000797167050
| 40>   H   -1.17451584360617     -4.60820675048880     -0.00011872516592
| 41>   H   -3.32207671532680     -3.41465497856564     -0.00025023814909
| 42>   H   -4.59253679048289     -1.33153116975716     -0.00036952032608
| 43>   H   -4.67219071827069      1.13379875695350     -0.00044562775965
| 44>   H   1.23798091724791      4.64550021059141     -0.00029268019975
| 45>   H   3.36490179443101      3.39691648656407     -0.00016139178048
| 46>   H   4.58720556626417      1.28510572107642     -0.00003933255885
| 47> **                         ****END OF INPUT****
================================================================================

                       *****************************
                       * Geometry Optimization Run *
                       *****************************

Geometry optimization settings:
Update method            Update   .... BFGS
Choice of coordinates    CoordSys .... Z-matrix Internals
Initial Hessian          InHess   .... Almoef's Model

Convergence Tolerances:
Energy Change            TolE     ....  5.0000e-06 Eh
Max. Gradient            TolMAXG  ....  3.0000e-04 Eh/bohr
RMS Gradient             TolRMSG  ....  1.0000e-04 Eh/bohr
Max. Displacement        TolMAXD  ....  4.0000e-03 bohr
RMS Displacement         TolRMSD  ....  2.0000e-03 bohr
Strict Convergence                ....  False
------------------------------------------------------------------------------
                        ORCA OPTIMIZATION COORDINATE SETUP
------------------------------------------------------------------------------

The optimization will be done in new redundant internal coordinates
Making redundant internal coordinates   ...  (new redundants) done
Evaluating the initial hessian          ...  (Almloef) done
Evaluating the coordinates              ...  done
Calculating the B-matrix                .... done
Calculating the G-matrix                .... done
Diagonalizing the G-matrix              .... done
The first mode is                       ....  121
The number of degrees of freedom        ....   93

    -----------------------------------------------------------------
                    Redundant Internal Coordinates


    -----------------------------------------------------------------
         Definition                    Initial Value    Approx d2E/dq
    -----------------------------------------------------------------
      1. B(C   1,C   0)                  1.3618         0.692981   
      2. B(C   2,C   1)                  1.4182         0.563317   
      3. B(C   3,C   2)                  1.4212         0.557123   
      4. B(C   4,C   3)                  1.3587         0.700903   
      5. B(C   5,C   4)                  1.4220         0.555477   
      6. B(C   6,C   5)                  1.4156         0.568812   
      7. B(C   7,C   6)                  1.3643         0.686785   
      8. B(C   8,C   7)                  1.4088         0.583051   
      9. B(C   9,C   8)                  1.4069         0.587270   
     10. B(C  10,C   9)                  1.2225         1.156047   
     11. B(C  11,C  10)                  1.4069         0.587175   
     12. B(C  12,C  11)                  1.4090         0.582776   
     13. B(C  13,C  12)                  1.3642         0.687014   
     14. B(C  14,C  13)                  1.4154         0.569030   
     15. B(C  15,C  14)                  1.4221         0.555301   
     16. B(C  16,C  15)                  1.3588         0.700626   
     17. B(C  17,C  16)                  1.4212         0.557182   
     18. B(C  17,C   0)                  1.4180         0.563639   
     19. B(C  18,C  17)                  1.4080         0.584894   
     20. B(C  19,C  18)                  1.4251         0.549295   
     21. B(C  19,C  14)                  1.4115         0.577339   
     22. B(C  20,C  19)                  1.4225         0.554445   
     23. B(C  20,C  11)                  1.4300         0.539334   
     24. B(C  21,C  20)                  1.4396         0.520784   
     25. B(C  21,C   8)                  1.4301         0.539219   
     26. B(C  22,C  21)                  1.4224         0.554717   
     27. B(C  22,C   5)                  1.4115         0.577357   
     28. B(C  23,C  22)                  1.4252         0.549058   
     29. B(C  23,C  18)                  1.4206         0.558356   
     30. B(C  23,C   2)                  1.4079         0.585121   
     31. B(H  24,C   0)                  1.0833         0.369028   
     32. B(H  25,C   1)                  1.0833         0.369052   
     33. B(H  26,C   3)                  1.0833         0.369120   
     34. B(H  27,C   4)                  1.0833         0.369103   
     35. B(H  28,C   6)                  1.0832         0.369209   
     36. B(H  29,C   7)                  1.0813         0.371850   
     37. B(H  30,C  12)                  1.0813         0.371852   
     38. B(H  31,C  13)                  1.0832         0.369166   
     39. B(H  32,C  15)                  1.0833         0.369113   
     40. A(C   1,C   0,C  17)          121.0423         0.435316   
     41. A(C  17,C   0,H  24)          118.5621         0.348713   
     42. A(C   1,C   0,H  24)          120.3956         0.361145   
     43. A(C   0,C   1,C   2)          121.0358         0.435271   
     44. A(C   0,C   1,H  25)          120.3964         0.361149   
     45. A(C   2,C   1,H  25)          118.5677         0.348683   
     46. A(C   1,C   2,C   3)          121.7965         0.418584   
     47. A(C   3,C   2,C  23)          119.1437         0.421430   
     48. A(C   1,C   2,C  23)          119.0598         0.422262   
     49. A(C   4,C   3,H  26)          120.4786         0.361861   
     50. A(C   2,C   3,C   4)          120.9656         0.435296   
     51. A(C   2,C   3,H  26)          118.5559         0.348045   
     52. A(C   3,C   4,H  27)          120.4374         0.361858   
     53. A(C   3,C   4,C   5)          121.1880         0.435064   
     54. A(C   5,C   4,H  27)          118.3746         0.347868   
     55. A(C   4,C   5,C  22)          119.1014         0.420204   
     56. A(C   6,C   5,C  22)          119.5764         0.421987   
     57. A(C   4,C   5,C   6)          121.3222         0.419088   
     58. A(C   5,C   6,C   7)          121.2903         0.435328   
     59. A(C   5,C   6,H  28)          118.5239         0.349279   
     60. A(C   7,C   6,H  28)          120.1859         0.360623   
     61. A(C   6,C   7,H  29)          121.0505         0.361061   
     62. A(C   6,C   7,C   8)          120.0451         0.437272   
     63. A(C   8,C   7,H  29)          118.9044         0.351162   
     64. A(C   9,C   8,C  21)          109.4372         0.419255   
     65. A(C   7,C   8,C  21)          120.8547         0.418716   
     66. A(C   7,C   8,C   9)          129.7081         0.425148   
     67. A(C   8,C   9,C  10)          128.3113         0.481477   
     68. A(C   9,C  10,C  11)          128.2803         0.481463   
     69. A(C  12,C  11,C  20)          120.8432         0.418697   
     70. A(C  10,C  11,C  20)          109.4489         0.419258   
     71. A(C  10,C  11,C  12)          129.7080         0.425100   
     72. A(C  11,C  12,H  30)          118.9036         0.351135   
     73. A(C  11,C  12,C  13)          120.0472         0.437261   
     74. A(C  13,C  12,H  30)          121.0492         0.361082   
     75. A(C  12,C  13,H  31)          120.1739         0.360636   
     76. A(C  12,C  13,C  14)          121.2982         0.435385   
     77. A(C  14,C  13,H  31)          118.5279         0.349295   
     78. A(C  13,C  14,C  15)          121.3258         0.419093   
     79. A(C  15,C  14,C  19)          119.0971         0.420178   
     80. A(C  13,C  14,C  19)          119.5771         0.422014   
     81. A(C  14,C  15,C  16)          121.1855         0.435008   
     82. A(C  16,C  15,H  32)          120.4458         0.361836   
     83. A(C  14,C  15,H  32)          118.3686         0.347851   
     84. A(C  15,C  16,C  17)          120.9670         0.435273   
     85. A(C  16,C  17,C  18)          119.1407         0.421408   
     86. A(C   0,C  17,C  18)          119.0633         0.422276   
     87. A(C   0,C  17,C  16)          121.7960         0.418635   
     88. A(C  17,C  18,C  19)          120.0209         0.420337   
     89. A(C  19,C  18,C  23)          120.0845         0.416873   
     90. A(C  17,C  18,C  23)          119.8946         0.421567   
     91. A(C  18,C  19,C  20)          120.2184         0.416352   
     92. A(C  14,C  19,C  20)          120.1928         0.420062   
     93. A(C  14,C  19,C  18)          119.5887         0.419364   
     94. A(C  11,C  20,C  19)          118.0415         0.414999   
     95. A(C  19,C  20,C  21)          119.6955         0.412427   
     96. A(C  11,C  20,C  21)          122.2629         0.410410   
     97. A(C  20,C  21,C  22)          119.7086         0.412463   
     98. A(C   8,C  21,C  22)          118.0320         0.415019   
     99. A(C   8,C  21,C  20)          122.2594         0.410395   
    100. A(C  21,C  22,C  23)          120.2165         0.416357   
    101. A(C   5,C  22,C  23)          119.5821         0.419334   
    102. A(C   5,C  22,C  21)          120.2015         0.420101   
    103. A(C  18,C  23,C  22)          120.0765         0.416841   
    104. A(C   2,C  23,C  22)          120.0193         0.420334   
    105. A(C   2,C  23,C  18)          119.9043         0.421596   
    106. D(H  25,C   1,C   0,C  17)   -180.0000         0.033765   
    107. D(C   2,C   1,C   0,H  24)    180.0000         0.033765   
    108. D(C   2,C   1,C   0,C  17)     -0.0000         0.033765   
    109. D(H  25,C   1,C   0,H  24)      0.0000         0.033765   
    110. D(C  23,C   2,C   1,H  25)    180.0000         0.021747   
    111. D(C   3,C   2,C   1,H  25)     -0.0000         0.021747   
    112. D(C   3,C   2,C   1,C   0)   -180.0000         0.021747   
    113. D(C  23,C   2,C   1,C   0)      0.0000         0.021747   
    114. D(H  26,C   3,C   2,C  23)    180.0000         0.021253   
    115. D(H  26,C   3,C   2,C   1)     -0.0000         0.021253   
    116. D(C   4,C   3,C   2,C   1)    179.9999         0.021253   
    117. D(C   4,C   3,C   2,C  23)     -0.0001         0.021253   
    118. D(H  27,C   4,C   3,C   2)    180.0000         0.034607   
    119. D(C   5,C   4,C   3,C   2)      0.0000         0.034607   
    120. D(C   5,C   4,C   3,H  26)    180.0000         0.034607   
    121. D(H  27,C   4,C   3,H  26)     -0.0000         0.034607   
    122. D(C  22,C   5,C   4,H  27)    180.0000         0.021123   
    123. D(C  22,C   5,C   4,C   3)     -0.0000         0.021123   
    124. D(C   6,C   5,C   4,C   3)    180.0000         0.021123   
    125. D(C   6,C   5,C   4,H  27)      0.0000         0.021123   
    126. D(C   7,C   6,C   5,C  22)     -0.0000         0.022191   
    127. D(H  28,C   6,C   5,C  22)    180.0000         0.022191   
    128. D(H  28,C   6,C   5,C   4)     -0.0001         0.022191   
    129. D(C   7,C   6,C   5,C   4)    180.0000         0.022191   
    130. D(H  29,C   7,C   6,H  28)     -0.0000         0.033116   
    131. D(C   8,C   7,C   6,C   5)      0.0000         0.033116   
    132. D(C   8,C   7,C   6,H  28)   -180.0000         0.033116   
    133. D(H  29,C   7,C   6,C   5)    180.0000         0.033116   
    134. D(C  21,C   8,C   7,C   6)      0.0001         0.023367   
    135. D(C   9,C   8,C   7,H  29)      0.0000         0.023367   
    136. D(C   9,C   8,C   7,C   6)    180.0000         0.023367   
    137. D(C  21,C   8,C   7,H  29)   -179.9999         0.023367   
    138. D(C  10,C   9,C   8,C  21)     -0.0000         0.021530   
    139. D(C  10,C   9,C   8,C   7)   -179.9999         0.021530   
    140. D(C  11,C  10,C   9,C   8)      0.0000         0.084996   
    141. D(C  20,C  11,C  10,C   9)     -0.0001         0.021522   
    142. D(C  12,C  11,C  10,C   9)    180.0000         0.021522   
    143. D(H  30,C  12,C  11,C  20)   -180.0000         0.023344   
    144. D(H  30,C  12,C  11,C  10)     -0.0001         0.023344   
    145. D(C  13,C  12,C  11,C  20)     -0.0000         0.023344   
    146. D(C  13,C  12,C  11,C  10)    179.9999         0.023344   
    147. D(H  31,C  13,C  12,H  30)     -0.0000         0.033139   
    148. D(H  31,C  13,C  12,C  11)   -180.0000         0.033139   
    149. D(C  14,C  13,C  12,H  30)    180.0000         0.033139   
    150. D(C  14,C  13,C  12,C  11)      0.0000         0.033139   
    151. D(C  19,C  14,C  13,H  31)   -180.0000         0.022208   
    152. D(C  19,C  14,C  13,C  12)      0.0000         0.022208   
    153. D(C  15,C  14,C  13,H  31)      0.0001         0.022208   
    154. D(C  15,C  14,C  13,C  12)   -179.9999         0.022208   
    155. D(H  32,C  15,C  14,C  13)     -0.0000         0.021109   
    156. D(C  16,C  15,C  14,C  19)      0.0001         0.021109   
    157. D(C  16,C  15,C  14,C  13)    180.0000         0.021109   
    158. D(H  32,C  15,C  14,C  19)   -180.0000         0.021109   
    159. D(C  17,C  16,C  15,H  32)    180.0000         0.031313   
    160. D(C  17,C  16,C  15,C  14)     -0.0000         0.031313   
    161. D(C  18,C  17,C  16,C  15)      0.0000         0.019307   
    162. D(C   0,C  17,C  16,C  15)    180.0000         0.019307   
    163. D(C  18,C  17,C   0,H  24)   -180.0000         0.021772   
    164. D(C  18,C  17,C   0,C   1)      0.0000         0.021772   
    165. D(C  16,C  17,C   0,H  24)      0.0001         0.021772   
    166. D(C  16,C  17,C   0,C   1)   -180.0000         0.021772   
    167. D(C  19,C  18,C  17,C  16)      0.0000         0.023522   
    168. D(C  19,C  18,C  17,C   0)   -180.0000         0.023522   
    169. D(C  23,C  18,C  17,C  16)    180.0000         0.023522   
    170. D(C  23,C  18,C  17,C   0)      0.0000         0.023522   
    171. D(C  20,C  19,C  18,C  23)      0.0002         0.020639   
    172. D(C  20,C  19,C  18,C  17)   -179.9999         0.020639   
    173. D(C  14,C  19,C  18,C  23)   -180.0000         0.020639   
    174. D(C  14,C  19,C  18,C  17)      0.0000         0.020639   
    175. D(C  20,C  19,C  14,C  15)    179.9998         0.022891   
    176. D(C  20,C  19,C  14,C  13)     -0.0001         0.022891   
    177. D(C  18,C  19,C  14,C  15)     -0.0000         0.022891   
    178. D(C  18,C  19,C  14,C  13)   -180.0000         0.022891   
    179. D(C  21,C  20,C  19,C  18)     -0.0001         0.021042   
    180. D(C  21,C  20,C  19,C  14)   -180.0000         0.021042   
    181. D(C  11,C  20,C  19,C  18)    179.9999         0.021042   
    182. D(C  11,C  20,C  19,C  14)      0.0001         0.021042   
    183. D(C  21,C  20,C  11,C  12)   -179.9999         0.019874   
    184. D(C  21,C  20,C  11,C  10)      0.0001         0.019874   
    185. D(C  19,C  20,C  11,C  12)     -0.0000         0.019874   
    186. D(C  19,C  20,C  11,C  10)   -180.0000         0.019874   
    187. D(C  22,C  21,C  20,C  19)      0.0001         0.018498   
    188. D(C  22,C  21,C  20,C  11)   -180.0000         0.018498   
    189. D(C   8,C  21,C  20,C  19)    180.0000         0.018498   
    190. D(C   8,C  21,C  20,C  11)     -0.0001         0.018498   
    191. D(C  22,C  21,C   8,C   9)    179.9999         0.019865   
    192. D(C  22,C  21,C   8,C   7)     -0.0002         0.019865   
    193. D(C  20,C  21,C   8,C   9)      0.0000         0.019865   
    194. D(C  20,C  21,C   8,C   7)    179.9999         0.019865   
    195. D(C  23,C  22,C  21,C  20)     -0.0001         0.021063   
    196. D(C  23,C  22,C  21,C   8)   -180.0000         0.021063   
    197. D(C   5,C  22,C  21,C  20)   -179.9999         0.021063   
    198. D(C   5,C  22,C  21,C   8)      0.0002         0.021063   
    199. D(C  23,C  22,C   5,C   6)   -179.9999         0.022892   
    200. D(C  23,C  22,C   5,C   4)      0.0001         0.022892   
    201. D(C  21,C  22,C   5,C   6)     -0.0001         0.022892   
    202. D(C  21,C  22,C   5,C   4)    179.9999         0.022892   
    203. D(C  18,C  23,C  22,C  21)      0.0001         0.020621   
    204. D(C  18,C  23,C  22,C   5)    180.0000         0.020621   
    205. D(C   2,C  23,C  22,C   5)     -0.0001         0.020621   
    206. D(C  22,C  23,C  18,C  19)     -0.0002         0.021351   
    207. D(C  22,C  23,C  18,C  17)    179.9999         0.021351   
    208. D(C   2,C  23,C  18,C  19)    179.9999         0.021351   
    209. D(C   2,C  23,C  18,C  17)     -0.0000         0.021351   
    210. D(C  22,C  23,C   2,C   3)      0.0001         0.023541   
    211. D(C   2,C  23,C  22,C  21)   -180.0000         0.020621   
    212. D(C  22,C  23,C   2,C   1)   -179.9999         0.023541   
    213. D(C  18,C  23,C   2,C   3)   -180.0000         0.023541   
    214. D(C  18,C  23,C   2,C   1)      0.0000         0.023541   
    -----------------------------------------------------------------

Number of atoms                         .... 33
Number of degrees of freedom            .... 214

         *************************************************************
         *                GEOMETRY OPTIMIZATION CYCLE   1            *
         *************************************************************
---------------------------------
CARTESIAN COORDINATES (ANGSTROEM)
---------------------------------
  C      2.450259   -2.790902   -0.000010
  C      1.279570   -3.486603   -0.000042
  C      0.030207   -2.815504   -0.000119
  C     -1.201078   -3.525267   -0.000152
  C     -2.388588   -2.865027   -0.000225
  C     -2.441055   -1.443984   -0.000270
  C     -3.676631   -0.753226   -0.000345
  C     -3.726207    0.610123   -0.000387
  C     -2.533123    1.359346   -0.000356
  C     -2.347533    2.753913   -0.000389
  C     -1.296702    3.378618   -0.000363
  C      0.016856    2.874684   -0.000292
  C      1.245521    3.564269   -0.000260
  C      2.419109    2.868839   -0.000187
  C      2.435132    1.453480   -0.000143
  C      3.658215    0.727924   -0.000064
  C      3.670269   -0.630842   -0.000022
  C      2.458196   -1.372883   -0.000053
  C      1.231365   -0.682051   -0.000130
  C      1.215523    0.742919   -0.000175
  C     -0.021576    1.445161   -0.000250
  C     -1.259096    0.709704   -0.000282
  C     -1.233915   -0.712457   -0.000237
  C      0.010127   -1.407788   -0.000162
  H      3.398836   -3.314174    0.000049
  H      1.285717   -4.569901   -0.000008
  H     -1.174516   -4.608207   -0.000119
  H     -3.322077   -3.414655   -0.000250
  H     -4.592537   -1.331531   -0.000370
  H     -4.672191    1.133799   -0.000446
  H      1.237981    4.645500   -0.000293
  H      3.364902    3.396916   -0.000161
  H      4.587206    1.285106   -0.000039

----------------------------
CARTESIAN COORDINATES (A.U.)
----------------------------
  NO LB      ZA    FRAG     MASS         X           Y           Z
   0 C     6.0000    0    12.011    4.630319   -5.274040   -0.000019
   1 C     6.0000    0    12.011    2.418036   -6.588724   -0.000079
   2 C     6.0000    0    12.011    0.057082   -5.320531   -0.000224
   3 C     6.0000    0    12.011   -2.269709   -6.661789   -0.000288
   4 C     6.0000    0    12.011   -4.513777   -5.414117   -0.000425
   5 C     6.0000    0    12.011   -4.612926   -2.728734   -0.000509
   6 C     6.0000    0    12.011   -6.947825   -1.423390   -0.000652
   7 C     6.0000    0    12.011   -7.041510    1.152966   -0.000732
   8 C     6.0000    0    12.011   -4.786908    2.568792   -0.000673
   9 C     6.0000    0    12.011   -4.436195    5.204141   -0.000736
  10 C     6.0000    0    12.011   -2.450411    6.384662   -0.000685
  11 C     6.0000    0    12.011    0.031853    5.432365   -0.000551
  12 C     6.0000    0    12.011    2.353694    6.735491   -0.000490
  13 C     6.0000    0    12.011    4.571453    5.421320   -0.000353
  14 C     6.0000    0    12.011    4.601733    2.746679   -0.000270
  15 C     6.0000    0    12.011    6.913024    1.375577   -0.000121
  16 C     6.0000    0    12.011    6.935803   -1.192118   -0.000041
  17 C     6.0000    0    12.011    4.645318   -2.594373   -0.000100
  18 C     6.0000    0    12.011    2.326943   -1.288890   -0.000245
  19 C     6.0000    0    12.011    2.297006    1.403913   -0.000331
  20 C     6.0000    0    12.011   -0.040772    2.730958   -0.000472
  21 C     6.0000    0    12.011   -2.379346    1.341146   -0.000533
  22 C     6.0000    0    12.011   -2.331761   -1.346349   -0.000448
  23 C     6.0000    0    12.011    0.019137   -2.660334   -0.000307
  24 H     1.0000    0     1.008    6.422869   -6.262881    0.000093
  25 H     1.0000    0     1.008    2.429653   -8.635861   -0.000015
  26 H     1.0000    0     1.008   -2.219513   -8.708249   -0.000224
  27 H     1.0000    0     1.008   -6.277815   -6.452763   -0.000473
  28 H     1.0000    0     1.008   -8.678637   -2.516229   -0.000698
  29 H     1.0000    0     1.008   -8.829161    2.142569   -0.000842
  30 H     1.0000    0     1.008    2.339445    8.778723   -0.000553
  31 H     1.0000    0     1.008    6.358743    6.419242   -0.000305
  32 H     1.0000    0     1.008    8.668562    2.428498   -0.000074

--------------------------------
INTERNAL COORDINATES (ANGSTROEM)
--------------------------------
 C      0   0   0     0.000000000000     0.00000000     0.00000000
 C      1   0   0     1.361805268754     0.00000000     0.00000000
 C      2   1   0     1.418196637354   121.03583292     0.00000000
 C      3   2   1     1.421205945614   121.79647736   180.00002093
 C      4   3   2     1.358711100847   120.96559056   179.99993381
 C      5   4   3     1.422011683191   121.18797557     0.00000000
 C      6   5   4     1.415554177598   121.32221127   179.99999759
 C      7   6   5     1.364250001452   121.29028049   179.99996672
 C      8   7   6     1.408823747755   120.04510016     0.00000000
 C      9   8   7     1.406861184808   129.70806587   179.99996473
 C     10   9   8     1.222499054705   128.31130613   180.00011092
 C     11  10   9     1.406905172764   128.28026653     0.00000000
 C     12  11  10     1.408951961441   129.70798299   179.99998799
 C     13  12  11     1.364159327396   120.04722264   179.99990053
 C     14  13  12     1.415449556716   121.29820085     0.00000000
 C     15  14  13     1.422098014506   121.32584833   180.00012803
 C     16  15  14     1.358818769118   121.18552930   179.99997617
 C      1   2   3     1.418041048065   121.04226979     0.00000000
 C     18   1   2     1.407964419824   119.06327690     0.00000000
 C     15  14  13     1.411503631414   119.57707472     0.00000000
 C     20  15  14     1.422518027192   120.19281654     0.00000000
 C      9   8   7     1.430097976537   120.85473388     0.00000000
 C      6   5   4     1.411495286796   119.10135545     0.00000000
 C      3   2   1     1.407858811541   119.05980831     0.00000000
 H      1   2   3     1.083333400371   120.39558970   179.99996853
 H      2   1   3     1.083315614482   120.39642639   180.00004009
 H      4   3   2     1.083265394100   118.55585572     0.00000000
 H      5   4   3     1.083278347320   120.43741905   179.99999080
 H      7   6   5     1.083199709896   118.52386065     0.00000000
 H      8   7   6     1.081259291811   121.05048770   179.99995603
 H     13  12  11     1.081257926688   118.90362198     0.00000000
 H     14  13  12     1.083231264764   120.17387045   180.00003871
 H     16  15  14     1.083270997038   118.36864910     0.00000000

---------------------------
INTERNAL COORDINATES (A.U.)
---------------------------
 C      0   0   0     0.000000000000     0.00000000     0.00000000
 C      1   0   0     2.573439005676     0.00000000     0.00000000
 C      2   1   0     2.680003248647   121.03583292     0.00000000
 C      3   2   1     2.685690017111   121.79647736   180.00002093
 C      4   3   2     2.567591875719   120.96559056   179.99993381
 C      5   4   3     2.687212640467   121.18797557     0.00000000
 C      6   5   4     2.675009723388   121.32221127   179.99999759
 C      7   6   5     2.578058880945   121.29028049   179.99996672
 C      8   7   6     2.662291054221   120.04510016     0.00000000
 C      9   8   7     2.658582347731   129.70806587   179.99996473
 C     10   9   8     2.310188412369   128.31130613   180.00011092
 C     11  10   9     2.658665472920   128.28026653     0.00000000
 C     12  11  10     2.662533342976   129.70798299   179.99998799
 C     13  12  11     2.577887531813   120.04722264   179.99990053
 C     14  13  12     2.674812018574   121.29820085     0.00000000
 C     15  14  13     2.687375783009   121.32584833   180.00012803
 C     16  15  14     2.567795339265   121.18552930   179.99997617
 C      1   2   3     2.679709227501   121.04226979     0.00000000
 C     18   1   2     2.660667159773   119.06327690     0.00000000
 C     15  14  13     2.667355300408   119.57707472     0.00000000
 C     20  15  14     2.688169491959   120.19281654     0.00000000
 C      9   8   7     2.702493520330   120.85473388     0.00000000
 C      6   5   4     2.667339531365   119.10135545     0.00000000
 C      3   2   1     2.660467589041   119.05980831     0.00000000
 H      1   2   3     2.047203438430   120.39558970   179.99996853
 H      2   1   3     2.047169827971   120.39642639   180.00004009
 H      4   3   2     2.047074925203   118.55585572     0.00000000
 H      5   4   3     2.047099403241   120.43741905   179.99999080
 H      7   6   5     2.046950800046   118.52386065     0.00000000
 H      8   7   6     2.043283941280   121.05048770   179.99995603
 H     13  12  11     2.043281361571   118.90362198     0.00000000
 H     14  13  12     2.047010430105   120.17387045   180.00003871
 H     16  15  14     2.047085513221   118.36864910     0.00000000

---------------------
BASIS SET INFORMATION
---------------------
There are 2 groups of distinct atoms

 Group   1 Type C   : 11s6p2d1f contracted to 5s3p2d1f pattern {62111/411/11/1}
 Group   2 Type H   : 5s1p contracted to 3s1p pattern {311/1}

Atom   0C    basis set group =>   1
Atom   1C    basis set group =>   1
Atom   2C    basis set group =>   1
Atom   3C    basis set group =>   1
Atom   4C    basis set group =>   1
Atom   5C    basis set group =>   1
Atom   6C    basis set group =>   1
Atom   7C    basis set group =>   1
Atom   8C    basis set group =>   1
Atom   9C    basis set group =>   1
Atom  10C    basis set group =>   1
Atom  11C    basis set group =>   1
Atom  12C    basis set group =>   1
Atom  13C    basis set group =>   1
Atom  14C    basis set group =>   1
Atom  15C    basis set group =>   1
Atom  16C    basis set group =>   1
Atom  17C    basis set group =>   1
Atom  18C    basis set group =>   1
Atom  19C    basis set group =>   1
Atom  20C    basis set group =>   1
Atom  21C    basis set group =>   1
Atom  22C    basis set group =>   1
Atom  23C    basis set group =>   1
Atom  24H    basis set group =>   2
Atom  25H    basis set group =>   2
Atom  26H    basis set group =>   2
Atom  27H    basis set group =>   2
Atom  28H    basis set group =>   2
Atom  29H    basis set group =>   2
Atom  30H    basis set group =>   2
Atom  31H    basis set group =>   2
Atom  32H    basis set group =>   2
---------------------------------
AUXILIARY/J BASIS SET INFORMATION
---------------------------------
There are 2 groups of distinct atoms

 Group   1 Type C   : 12s5p4d2f1g contracted to 6s4p3d1f1g pattern {711111/2111/211/2/1}
 Group   2 Type H   : 5s2p1d contracted to 3s1p1d pattern {311/2/1}

Atom   0C    basis set group =>   1
Atom   1C    basis set group =>   1
Atom   2C    basis set group =>   1
Atom   3C    basis set group =>   1
Atom   4C    basis set group =>   1
Atom   5C    basis set group =>   1
Atom   6C    basis set group =>   1
Atom   7C    basis set group =>   1
Atom   8C    basis set group =>   1
Atom   9C    basis set group =>   1
Atom  10C    basis set group =>   1
Atom  11C    basis set group =>   1
Atom  12C    basis set group =>   1
Atom  13C    basis set group =>   1
Atom  14C    basis set group =>   1
Atom  15C    basis set group =>   1
Atom  16C    basis set group =>   1
Atom  17C    basis set group =>   1
Atom  18C    basis set group =>   1
Atom  19C    basis set group =>   1
Atom  20C    basis set group =>   1
Atom  21C    basis set group =>   1
Atom  22C    basis set group =>   1
Atom  23C    basis set group =>   1
Atom  24H    basis set group =>   2
Atom  25H    basis set group =>   2
Atom  26H    basis set group =>   2
Atom  27H    basis set group =>   2
Atom  28H    basis set group =>   2
Atom  29H    basis set group =>   2
Atom  30H    basis set group =>   2
Atom  31H    basis set group =>   2
Atom  32H    basis set group =>   2


           ************************************************************
           *        Program running with 5 parallel MPI-processes     *
           *              working on a common directory               *
           ************************************************************
------------------------------------------------------------------------------
                           ORCA GTO INTEGRAL CALCULATION
                           -- RI-GTO INTEGRALS CHOSEN --
------------------------------------------------------------------------------
------------------------------------------------------------------------------
                   ___                                                        
                  /   \      - P O W E R E D   B Y -                         
                 /     \                                                     
                 |  |  |   _    _      __       _____    __    __             
                 |  |  |  | |  | |    /  \     |  _  \  |  |  /  |          
                  \  \/   | |  | |   /    \    | | | |  |  | /  /          
                 / \  \   | |__| |  /  /\  \   | |_| |  |  |/  /          
                |  |  |   |  __  | /  /__\  \  |    /   |      \           
                |  |  |   | |  | | |   __   |  |    \   |  |\   \          
                \     /   | |  | | |  |  |  |  | |\  \  |  | \   \       
                 \___/    |_|  |_| |__|  |__|  |_| \__\ |__|  \__/        
                                                                              
                      - O R C A' S   B I G   F R I E N D -                    
                                      &                                       
                       - I N T E G R A L  F E E D E R -                       
                                                                              
 v1 FN, 2020, v2 2021                                                         
------------------------------------------------------------------------------


Reading SHARK input file eight_seven_twelve_position.SHARKINP.tmp ... ok
----------------------
SHARK INTEGRAL PACKAGE
----------------------

Number of atoms                             ...     33
Number of basis functions                   ...    798
Number of shells                            ...    300
Maximum angular momentum                    ...      3
Integral batch strategy                     ... SHARK/LIBINT Hybrid
RI-J (if used) integral strategy            ... SPLIT-RIJ (Revised 2003 algorithm where possible)
Printlevel                                  ...      1
Contraction scheme used                     ... SEGMENTED contraction
Coulomb Range Separation                    ... NOT USED
Exchange Range Separation                   ... NOT USED
Finite Nucleus Model                        ... NOT USED
Auxiliary Coulomb fitting basis             ... AVAILABLE
   # of basis functions in Aux-J            ...   1275
   # of shells in Aux-J                     ...    405
   Maximum angular momentum in Aux-J        ...      4
Auxiliary J/K fitting basis                 ... NOT available
Auxiliary Correlation fitting basis         ... NOT available
Auxiliary 'external' fitting basis          ... NOT available
Integral threshold                          ...     2.500000e-11
Primitive cut-off                           ...     2.500000e-12
Primitive pair pre-selection threshold      ...     2.500000e-12

Calculating pre-screening integrals         ... done (  0.1 sec) Dimension = 300
Organizing shell pair data                  ... done (  7.8 sec)
Shell pair information
Total number of shell pairs                 ...     45150
Shell pairs after pre-screening             ...     34935
Total number of primitive shell pairs       ...    143400
Primitive shell pairs kept                  ...     74095
          la=0 lb=0:   7776 shell pairs
          la=1 lb=0:   9577 shell pairs
          la=1 lb=1:   2888 shell pairs
          la=2 lb=0:   5308 shell pairs
          la=2 lb=1:   3262 shell pairs
          la=2 lb=2:    933 shell pairs
          la=3 lb=0:   2490 shell pairs
          la=3 lb=1:   1581 shell pairs
          la=3 lb=2:    886 shell pairs
          la=3 lb=3:    234 shell pairs

Calculating one electron integrals          ... done (  0.1 sec)
Calculating RI/J V-Matrix + Cholesky decomp.... done (  0.1 sec)
Calculating Nuclear repulsion               ... done (  0.0 sec) ENN=   1783.093663714939 Eh

SHARK setup successfully completed in  38.6 seconds

Maximum memory used throughout the entire GTOINT-calculation: 51.6 MB


           ************************************************************
           *        Program running with 5 parallel MPI-processes     *
           *              working on a common directory               *
           ************************************************************
-------------------------------------------------------------------------------
                                 ORCA SCF
-------------------------------------------------------------------------------

------------
SCF SETTINGS
------------
Hamiltonian:
 Density Functional     Method          .... DFT(GTOs)
 Exchange Functional    Exchange        .... M062X
 Correlation Functional Correlation     .... M062X
 Gradients option       PostSCFGGA      .... off
 Hybrid DFT is turned on
   Fraction HF Exchange ScalHFX         ....  0.540000
   Scaling of DF-GGA-X  ScalDFX         ....  0.460000
   Scaling of DF-GGA-C  ScalDFC         ....  1.000000
   Scaling of DF-LDA-C  ScalLDAC        ....  1.000000
   Perturbative correction              ....  0.000000
   Density functional embedding theory  .... OFF
 RI-approximation to the Coulomb term is turned on
   Number of AuxJ basis functions       .... 1275
   RIJ-COSX (HFX calculated with COS-X)).... on


General Settings:
 Integral files         IntName         .... eight_seven_twelve_position
 Hartree-Fock type      HFTyp           .... UHF
 Total Charge           Charge          ....    0
 Multiplicity           Mult            ....    2
 Number of Electrons    NEL             ....  153
 Basis Dimension        Dim             ....  798
 Nuclear Repulsion      ENuc            ....   1783.0936637149 Eh

Convergence Acceleration:
 DIIS                   CNVDIIS         .... on
   Start iteration      DIISMaxIt       ....    12
   Startup error        DIISStart       ....  0.200000
   # of expansion vecs  DIISMaxEq       ....     5
   Bias factor          DIISBfac        ....   1.050
   Max. coefficient     DIISMaxC        ....  10.000
 Trust-Rad. Augm. Hess. CNVTRAH         .... auto
   Auto Start mean grad. ratio tolernc. ....  1.125000
   Auto Start start iteration           ....    20
   Auto Start num. interpolation iter.  ....    10
   Max. Number of Micro iterations      ....    16
   Max. Number of Macro iterations      .... Maxiter - #DIIS iter
   Number of Davidson start vectors     ....     2
   Converg. threshold I  (grad. norm)   ....   1.000e-05
   Converg. threshold II (energy diff.) ....   1.000e-08
   Grad. Scal. Fac. for Micro threshold ....   0.100
   Minimum threshold for Micro iter.    ....   0.010
   NR start threshold (gradient norm)   ....   0.001
   Initial trust radius                 ....   0.400
   Minimum AH scaling param. (alpha)    ....   1.000
   Maximum AH scaling param. (alpha)    .... 1000.000
   Orbital update algorithm             .... Taylor
   White noise on init. David. guess    .... on
   Maximum white noise                  ....   0.010
   Quad. conv. algorithm                .... NR
 SOSCF                  CNVSOSCF        .... off
 Level Shifting         CNVShift        .... on
   Level shift para.    LevelShift      ....    0.2500
   Turn off err/grad.   ShiftErr        ....    0.0010
 Zerner damping         CNVZerner       .... off
 Static damping         CNVDamp         .... on
   Fraction old density DampFac         ....    0.7000
   Max. Damping (<1)    DampMax         ....    0.9800
   Min. Damping (>=0)   DampMin         ....    0.0000
   Turn off err/grad.   DampErr         ....    0.1000
 Fernandez-Rico         CNVRico         .... off

SCF Procedure:
 Maximum # iterations   MaxIter         ....   125
 SCF integral mode      SCFMode         .... Direct
   Integral package                     .... SHARK and LIBINT hybrid scheme
 Reset frequency        DirectResetFreq ....    20
 Integral Threshold     Thresh          ....  2.500e-11 Eh
 Primitive CutOff       TCut            ....  2.500e-12 Eh

Convergence Tolerance:
 Convergence Check Mode ConvCheckMode   .... Total+1el-Energy
 Convergence forced     ConvForced      .... 0
 Energy Change          TolE            ....  1.000e-08 Eh
 1-El. energy change                    ....  1.000e-05 Eh
 DIIS Error             TolErr          ....  5.000e-07


Diagonalization of the overlap matrix:
Smallest eigenvalue                        ... 6.751e-07
Time for diagonalization                   ...    0.283 sec
Threshold for overlap eigenvalues          ... 1.000e-08
Number of eigenvalues below threshold      ... 0
Time for construction of square roots      ...    0.089 sec
Total time needed                          ...    0.375 sec

Time for model grid setup =    0.374 sec

------------------------------
INITIAL GUESS: MODEL POTENTIAL
------------------------------
Loading Hartree-Fock densities                     ... done
Calculating cut-offs                               ... done
Initializing the effective Hamiltonian             ... done
Setting up the integral package (SHARK)            ... done
Starting the Coulomb interaction                   ... done (   0.7 sec)
Reading the grid                                   ... done
Mapping shells                                     ... done
Starting the XC term evaluation                    ... done (   0.7 sec)
  promolecular density results
     # of electrons  =    152.981886062
     EX              =   -125.495905311
     EC              =     -5.186568174
     EX+EC           =   -130.682473485
Transforming the Hamiltonian                       ... done (   0.1 sec)
Diagonalizing the Hamiltonian                      ... done (   0.1 sec)
Back transforming the eigenvectors                 ... done (   0.0 sec)
Now organizing SCF variables                       ... done
                      ------------------
                      INITIAL GUESS DONE (   2.0 sec)
                      ------------------
-------------------
DFT GRID GENERATION
-------------------

General Integration Accuracy     IntAcc      ... 4.388
Radial Grid Type                 RadialGrid  ... OptM3 with GC (2021)
Angular Grid (max. ang.)         AngularGrid ... 4 (Lebedev-302)
Angular grid pruning method      GridPruning ... 4 (adaptive)
Weight generation scheme         WeightScheme... Becke
Basis function cutoff            BFCut       ... 1.0000e-11
Integration weight cutoff        WCut        ... 1.0000e-14
Angular grids for H and He will be reduced by one unit
Partially contracted basis set               ... off
Rotationally invariant grid construction     ... off

Total number of grid points                  ...   171078
Total number of batches                      ...     2688
Average number of points per batch           ...       63
Average number of grid points per atom       ...     5184
Time for grid setup =    1.819 sec

--------------------
COSX GRID GENERATION
--------------------

GRIDX 1
-------
General Integration Accuracy     IntAcc      ... 3.816
Radial Grid Type                 RadialGrid  ... OptM3 with GC (2021)
Angular Grid (max. ang.)         AngularGrid ... 1 (Lebedev-50)
Angular grid pruning method      GridPruning ... 4 (adaptive)
Weight generation scheme         WeightScheme... Becke
Basis function cutoff            BFCut       ... 1.0000e-11
Integration weight cutoff        WCut        ... 1.0000e-14
Angular grids for H and He will be reduced by one unit
Partially contracted basis set               ... on
Rotationally invariant grid construction     ... off

Total number of grid points                  ...    21750
Total number of batches                      ...      354
Average number of points per batch           ...       61
Average number of grid points per atom       ...      659
UseSFitting                                  ... on

GRIDX 2
-------
General Integration Accuracy     IntAcc      ... 4.020
Radial Grid Type                 RadialGrid  ... OptM3 with GC (2021)
Angular Grid (max. ang.)         AngularGrid ... 2 (Lebedev-110)
Angular grid pruning method      GridPruning ... 4 (adaptive)
Weight generation scheme         WeightScheme... Becke
Basis function cutoff            BFCut       ... 1.0000e-11
Integration weight cutoff        WCut        ... 1.0000e-14
Angular grids for H and He will be reduced by one unit
Partially contracted basis set               ... on
Rotationally invariant grid construction     ... off

Total number of grid points                  ...    48362
Total number of batches                      ...      774
Average number of points per batch           ...       62
Average number of grid points per atom       ...     1466
UseSFitting                                  ... on

GRIDX 3
-------
General Integration Accuracy     IntAcc      ... 4.338
Radial Grid Type                 RadialGrid  ... OptM3 with GC (2021)
Angular Grid (max. ang.)         AngularGrid ... 3 (Lebedev-194)
Angular grid pruning method      GridPruning ... 4 (adaptive)
Weight generation scheme         WeightScheme... Becke
Basis function cutoff            BFCut       ... 1.0000e-11
Integration weight cutoff        WCut        ... 1.0000e-14
Angular grids for H and He will be reduced by one unit
Partially contracted basis set               ... on
Rotationally invariant grid construction     ... off

Total number of grid points                  ...   106489
Total number of batches                      ...     1682
Average number of points per batch           ...       63
Average number of grid points per atom       ...     3227
UseSFitting                                  ... on

Time for X-Grid setup             =    4.275 sec

--------------
SCF ITERATIONS
--------------
ITER       Energy         Delta-E        Max-DP      RMS-DP      [F,P]     Damp
               ***  Starting incremental Fock matrix formation  ***
  0   -919.4213661221   0.000000000000 0.05541610  0.00077843  0.0713126 0.7000
  1   -919.5801930041  -0.158826881984 0.05046446  0.00065347  0.0424592 0.7000
                               ***Turning on DIIS***
  2   -919.6674639449  -0.087270940864 0.13160530  0.00159669  0.0215997 0.0000
  3   -919.8117953620  -0.144331417092 0.01822067  0.00028729  0.0179938 0.0000
  4   -919.8306957746  -0.018900412534 0.01360157  0.00012859  0.0056788 0.0000
  5   -919.8313931979  -0.000697423369 0.00950368  0.00006975  0.0031216 0.0000
  6   -919.8315813168  -0.000188118850 0.00828270  0.00005609  0.0019812 0.0000
  7   -919.8316728272  -0.000091510449 0.00373828  0.00002847  0.0010495 0.0000
  8   -919.8317165507  -0.000043723472 0.00276890  0.00001745  0.0007032 0.0000
               *** Restarting incremental Fock matrix formation ***
                                   *** Resetting DIIS ***
  9   -919.8313577126   0.000358838157 0.01179751  0.00013668  0.0003724 0.0000
 10   -919.8313625491  -0.000004836597 0.00022526  0.00000318  0.0004822 0.0000
 11   -919.8313655673  -0.000003018179 0.00078967  0.00000881  0.0002172 0.0000
 12   -919.8313683227  -0.000002755399 0.00032511  0.00000396  0.0001188 0.0000
 13   -919.8313694600  -0.000001137237 0.00022153  0.00000360  0.0000590 0.0000
 14   -919.8313699299  -0.000000469985 0.00006378  0.00000117  0.0000253 0.0000
 15   -919.8313700041  -0.000000074189 0.00011218  0.00000146  0.0000225 0.0000
 16   -919.8313700212  -0.000000017097 0.00019708  0.00000218  0.0000200 0.0000
 17   -919.8313700459  -0.000000024640 0.00009932  0.00000132  0.0000258 0.0000
 18   -919.8313700502  -0.000000004319 0.00020417  0.00000266  0.0000137 0.0000
 19   -919.8313700531  -0.000000002858 0.00008924  0.00000128  0.0000072 0.0000
 20   -919.8313700690  -0.000000015947 0.00018080  0.00000185  0.0000049 0.0000
 21   -919.8313700689   0.000000000064 0.00010241  0.00000146  0.0000027 0.0000
 22   -919.8313700696  -0.000000000680 0.00017655  0.00000273  0.0000022 0.0000
                 **** Energy Check signals convergence ****

               *****************************************************
               *                     SUCCESS                       *
               *           SCF CONVERGED AFTER  23 CYCLES          *
               *****************************************************

Old exchange energy                            =    -69.026185922 Eh
New exchange energy                            =    -69.026019721 Eh
Exchange energy change after final integration =      0.000166201 Eh
Total energy after final integration           =   -919.831203867 Eh
Final COS-X integration done in                =    53.531 sec

----------------
TOTAL SCF ENERGY
----------------

Total Energy       :         -919.83120387 Eh          -25029.87955 eV

Components:
Nuclear Repulsion  :         1783.09366371 Eh           48520.44532 eV
Electronic Energy  :        -2702.92486758 Eh          -73550.32487 eV
One Electron Energy:        -4783.63605256 Eh         -130169.35467 eV
Two Electron Energy:         2080.71118498 Eh           56619.02980 eV
Max COSX asymmetry :            0.00000104 Eh               0.00003 eV

Virial components:
Potential Energy   :        -1835.14480159 Eh          -49936.82879 eV
Kinetic Energy     :          915.31359772 Eh           24906.94924 eV
Virial Ratio       :            2.00493558


DFT components:
N(Alpha)           :       77.000131015626 electrons
N(Beta)            :       76.000134236242 electrons
N(Total)           :      153.000265251868 electrons
E(XC)              :      -64.444497353257 Eh       
DFET-embed. en.    :        0.000000000000 Eh       

---------------
SCF CONVERGENCE
---------------

  Last Energy change         ...    1.9980e-09  Tolerance :   1.0000e-08
  Last MAX-Density change    ...    0.0000e+00  Tolerance :   1.0000e-07
  Last RMS-Density change    ...    0.0000e+00  Tolerance :   5.0000e-09
  Last DIIS Error            ...    2.0045e-06  Tolerance :   5.0000e-07

             **** THE GBW FILE WAS UPDATED (eight_seven_twelve_position.gbw) ****
             **** DENSITY eight_seven_twelve_position.scfp WAS UPDATED ****
             **** ENERGY FILE WAS UPDATED (eight_seven_twelve_position.en.tmp) ****
----------------------
UHF SPIN CONTAMINATION
----------------------

Warning: in a DFT calculation there is little theoretical justification to 
         calculate <S**2> as in Hartree-Fock theory. We will do it anyways
         but you should keep in mind that the values have only limited relevance

Expectation value of <S**2>     :     0.765186
Ideal value S*(S+1) for S=0.5   :     0.750000
Deviation                       :     0.015186

             **** THE GBW FILE WAS UPDATED (eight_seven_twelve_position.gbw) ****
             **** DENSITY eight_seven_twelve_position.scfp WAS UPDATED ****
----------------
ORBITAL ENERGIES
----------------
                 SPIN UP ORBITALS
  NO   OCC          E(Eh)            E(eV) 
   0   1.0000     -10.586101      -288.0624 
   1   1.0000     -10.585925      -288.0577 
   2   1.0000     -10.584166      -288.0098 
   3   1.0000     -10.572861      -287.7022 
   4   1.0000     -10.572076      -287.6808 
   5   1.0000     -10.569454      -287.6095 
   6   1.0000     -10.568851      -287.5931 
   7   1.0000     -10.568217      -287.5758 
   8   1.0000     -10.567212      -287.5485 
   9   1.0000     -10.567115      -287.5458 
  10   1.0000     -10.564878      -287.4850 
  11   1.0000     -10.563585      -287.4498 
  12   1.0000     -10.563161      -287.4382 
  13   1.0000     -10.558397      -287.3086 
  14   1.0000     -10.557743      -287.2908 
  15   1.0000     -10.556821      -287.2657 
  16   1.0000     -10.556535      -287.2579 
  17   1.0000     -10.555590      -287.2322 
  18   1.0000     -10.554628      -287.2060 
  19   1.0000     -10.554541      -287.2037 
  20   1.0000     -10.553498      -287.1753 
  21   1.0000     -10.553364      -287.1716 
  22   1.0000     -10.551007      -287.1075 
  23   1.0000     -10.548539      -287.0403 
  24   1.0000      -1.030193       -28.0330 
  25   1.0000      -0.992538       -27.0083 
  26   1.0000      -0.990713       -26.9587 
  27   1.0000      -0.940834       -25.6014 
  28   1.0000      -0.939960       -25.5776 
  29   1.0000      -0.918513       -24.9940 
  30   1.0000      -0.889403       -24.2019 
  31   1.0000      -0.870519       -23.6880 
  32   1.0000      -0.853107       -23.2142 
  33   1.0000      -0.845415       -23.0049 
  34   1.0000      -0.818257       -22.2659 
  35   1.0000      -0.816121       -22.2078 
  36   1.0000      -0.733377       -19.9562 
  37   1.0000      -0.733052       -19.9474 
  38   1.0000      -0.729573       -19.8527 
  39   1.0000      -0.716919       -19.5084 
  40   1.0000      -0.711936       -19.3728 
  41   1.0000      -0.654960       -17.8224 
  42   1.0000      -0.637365       -17.3436 
  43   1.0000      -0.620766       -16.8919 
  44   1.0000      -0.618756       -16.8372 
  45   1.0000      -0.605510       -16.4768 
  46   1.0000      -0.599713       -16.3190 
  47   1.0000      -0.556762       -15.1503 
  48   1.0000      -0.550350       -14.9758 
  49   1.0000      -0.541187       -14.7264 
  50   1.0000      -0.530665       -14.4401 
  51   1.0000      -0.526866       -14.3368 
  52   1.0000      -0.519263       -14.1299 
  53   1.0000      -0.515704       -14.0330 
  54   1.0000      -0.502998       -13.6873 
  55   1.0000      -0.497176       -13.5288 
  56   1.0000      -0.484495       -13.1838 
  57   1.0000      -0.476978       -12.9792 
  58   1.0000      -0.475081       -12.9276 
  59   1.0000      -0.471861       -12.8400 
  60   1.0000      -0.456085       -12.4107 
  61   1.0000      -0.449934       -12.2433 
  62   1.0000      -0.443663       -12.0727 
  63   1.0000      -0.434510       -11.8236 
  64   1.0000      -0.412486       -11.2243 
  65   1.0000      -0.412315       -11.2197 
  66   1.0000      -0.406591       -11.0639 
  67   1.0000      -0.392088       -10.6693 
  68   1.0000      -0.390621       -10.6294 
  69   1.0000      -0.345174        -9.3927 
  70   1.0000      -0.334827        -9.1111 
  71   1.0000      -0.328797        -8.9470 
  72   1.0000      -0.328039        -8.9264 
  73   1.0000      -0.319045        -8.6816 
  74   1.0000      -0.316401        -8.6097 
  75   1.0000      -0.263884        -7.1806 
  76   1.0000      -0.259808        -7.0697 
  77   0.0000      -0.047906        -1.3036 
  78   0.0000      -0.041325        -1.1245 
  79   0.0000      -0.037959        -1.0329 
  80   0.0000      -0.002656        -0.0723 
  81   0.0000       0.003198         0.0870 
  82   0.0000       0.015953         0.4341 
  83   0.0000       0.051889         1.4120 
  84   0.0000       0.078972         2.1489 
  85   0.0000       0.085409         2.3241 
  86   0.0000       0.087186         2.3724 
  87   0.0000       0.090805         2.4709 
  88   0.0000       0.107462         2.9242 
  89   0.0000       0.112501         3.0613 
  90   0.0000       0.114336         3.1112 
  91   0.0000       0.117388         3.1943 
  92   0.0000       0.120806         3.2873 
  93   0.0000       0.127485         3.4690 
  94   0.0000       0.134709         3.6656 
  95   0.0000       0.138026         3.7559 
  96   0.0000       0.140434         3.8214 
  97   0.0000       0.146483         3.9860 
  98   0.0000       0.163921         4.4605 
  99   0.0000       0.175952         4.7879 
 100   0.0000       0.178962         4.8698 
 101   0.0000       0.181882         4.9493 
 102   0.0000       0.188479         5.1288 
 103   0.0000       0.198486         5.4011 
 104   0.0000       0.200844         5.4653 
 105   0.0000       0.205690         5.5971 
 106   0.0000       0.210096         5.7170 
 107   0.0000       0.213751         5.8165 
 108   0.0000       0.223971         6.0946 
 109   0.0000       0.231755         6.3064 
 110   0.0000       0.233200         6.3457 
 111   0.0000       0.233550         6.3552 
 112   0.0000       0.244184         6.6446 
 113   0.0000       0.245639         6.6842 
 114   0.0000       0.252664         6.8753 
 115   0.0000       0.260887         7.0991 
 116   0.0000       0.262395         7.1401 
 117   0.0000       0.268952         7.3186 
 118   0.0000       0.272439         7.4134 
 119   0.0000       0.278880         7.5887 
 120   0.0000       0.280422         7.6307 
 121   0.0000       0.281181         7.6513 
 122   0.0000       0.284187         7.7331 
 123   0.0000       0.284276         7.7356 
 124   0.0000       0.293020         7.9735 
 125   0.0000       0.301419         8.2020 
 126   0.0000       0.302001         8.2179 
 127   0.0000       0.303979         8.2717 
 128   0.0000       0.313953         8.5431 
 129   0.0000       0.315739         8.5917 
 130   0.0000       0.317430         8.6377 
 131   0.0000       0.320394         8.7184 
 132   0.0000       0.320716         8.7271 
 133   0.0000       0.325093         8.8462 
 134   0.0000       0.328385         8.9358 
 135   0.0000       0.334144         9.0925 
 136   0.0000       0.343383         9.3439 
 137   0.0000       0.354867         9.6564 
 138   0.0000       0.356277         9.6948 
 139   0.0000       0.357506         9.7282 
 140   0.0000       0.360424         9.8076 
 141   0.0000       0.361413         9.8346 
 142   0.0000       0.365301         9.9403 
 143   0.0000       0.374093        10.1796 
 144   0.0000       0.378295        10.2939 
 145   0.0000       0.380286        10.3481 
 146   0.0000       0.381116        10.3707 
 147   0.0000       0.382730        10.4146 
 148   0.0000       0.389038        10.5863 
 149   0.0000       0.389069        10.5871 
 150   0.0000       0.391110        10.6426 
 151   0.0000       0.397496        10.8164 
 152   0.0000       0.411140        11.1877 
 153   0.0000       0.411659        11.2018 
 154   0.0000       0.415788        11.3142 
 155   0.0000       0.418584        11.3902 
 156   0.0000       0.427566        11.6347 
 157   0.0000       0.429261        11.6808 
 158   0.0000       0.432994        11.7824 
 159   0.0000       0.433861        11.8060 
 160   0.0000       0.443586        12.0706 
 161   0.0000       0.446871        12.1600 
 162   0.0000       0.459175        12.4948 
 163   0.0000       0.460100        12.5199 
 164   0.0000       0.460997        12.5444 
 165   0.0000       0.467507        12.7215 
 166   0.0000       0.472898        12.8682 
 167   0.0000       0.475182        12.9304 
 168   0.0000       0.476993        12.9796 
 169   0.0000       0.491436        13.3726 
 170   0.0000       0.496153        13.5010 
 171   0.0000       0.505892        13.7660 
 172   0.0000       0.508399        13.8342 
 173   0.0000       0.513445        13.9715 
 174   0.0000       0.514120        13.9899 
 175   0.0000       0.517525        14.0826 
 176   0.0000       0.524824        14.2812 
 177   0.0000       0.533510        14.5175 
 178   0.0000       0.537164        14.6170 
 179   0.0000       0.543102        14.7786 
 180   0.0000       0.547968        14.9110 
 181   0.0000       0.549023        14.9397 
 182   0.0000       0.554022        15.0757 
 183   0.0000       0.554471        15.0879 
 184   0.0000       0.554640        15.0925 
 185   0.0000       0.569230        15.4895 
 186   0.0000       0.573085        15.5944 
 187   0.0000       0.584527        15.9058 
 188   0.0000       0.591432        16.0937 
 189   0.0000       0.593756        16.1569 
 190   0.0000       0.603472        16.4213 
 191   0.0000       0.620011        16.8713 
 192   0.0000       0.631469        17.1831 
 193   0.0000       0.632507        17.2114 
 194   0.0000       0.632560        17.2128 
 195   0.0000       0.633587        17.2408 
 196   0.0000       0.641472        17.4553 
 197   0.0000       0.645944        17.5770 
 198   0.0000       0.651146        17.7186 
 199   0.0000       0.655746        17.8438 
 200   0.0000       0.658034        17.9060 
 201   0.0000       0.658292        17.9130 
 202   0.0000       0.664412        18.0796 
 203   0.0000       0.671065        18.2606 
 204   0.0000       0.676816        18.4171 
 205   0.0000       0.679625        18.4935 
 206   0.0000       0.687836        18.7170 
 207   0.0000       0.689820        18.7710 
 208   0.0000       0.696611        18.9557 
 209   0.0000       0.697869        18.9900 
 210   0.0000       0.714602        19.4453 
 211   0.0000       0.717281        19.5182 
 212   0.0000       0.726428        19.7671 
 213   0.0000       0.726938        19.7810 
 214   0.0000       0.731829        19.9141 
 215   0.0000       0.742904        20.2154 
 216   0.0000       0.752359        20.4727 
 217   0.0000       0.755848        20.5677 
 218   0.0000       0.759871        20.6772 
 219   0.0000       0.767710        20.8905 
 220   0.0000       0.767992        20.8981 
 221   0.0000       0.768778        20.9195 
 222   0.0000       0.777355        21.1529 
 223   0.0000       0.780504        21.2386 
 224   0.0000       0.785263        21.3681 
 225   0.0000       0.791005        21.5243 
 226   0.0000       0.794882        21.6298 
 227   0.0000       0.798281        21.7223 
 228   0.0000       0.799929        21.7672 
 229   0.0000       0.802815        21.8457 
 230   0.0000       0.809230        22.0203 
 231   0.0000       0.818946        22.2846 
 232   0.0000       0.824478        22.4352 
 233   0.0000       0.828543        22.5458 
 234   0.0000       0.830961        22.6116 
 235   0.0000       0.835699        22.7405 
 236   0.0000       0.850399        23.1405 
 237   0.0000       0.857261        23.3272 
 238   0.0000       0.862794        23.4778 
 239   0.0000       0.863092        23.4859 
 240   0.0000       0.867990        23.6192 
 241   0.0000       0.868787        23.6409 
 242   0.0000       0.873757        23.7761 
 243   0.0000       0.889944        24.2166 
 244   0.0000       0.891938        24.2709 
 245   0.0000       0.894946        24.3527 
 246   0.0000       0.897515        24.4226 
 247   0.0000       0.906428        24.6652 
 248   0.0000       0.907695        24.6996 
 249   0.0000       0.909278        24.7427 
 250   0.0000       0.920487        25.0477 
 251   0.0000       0.920998        25.0616 
 252   0.0000       0.926019        25.1983 
 253   0.0000       0.935767        25.4635 
 254   0.0000       0.953451        25.9447 
 255   0.0000       0.953652        25.9502 
 256   0.0000       0.955833        26.0095 
 257   0.0000       0.969525        26.3821 
 258   0.0000       0.985159        26.8075 
 259   0.0000       0.990223        26.9453 
 260   0.0000       0.998017        27.1574 
 261   0.0000       1.014406        27.6034 
 262   0.0000       1.015033        27.6204 
 263   0.0000       1.020709        27.7749 
 264   0.0000       1.031073        28.0569 
 265   0.0000       1.042930        28.3796 
 266   0.0000       1.053376        28.6638 
 267   0.0000       1.063141        28.9295 
 268   0.0000       1.070495        29.1296 
 269   0.0000       1.075137        29.2560 
 270   0.0000       1.080553        29.4033 
 271   0.0000       1.087785        29.6001 
 272   0.0000       1.092452        29.7271 
 273   0.0000       1.095422        29.8079 
 274   0.0000       1.101312        29.9682 
 275   0.0000       1.109166        30.1819 
 276   0.0000       1.118014        30.4227 
 277   0.0000       1.128417        30.7058 
 278   0.0000       1.145049        31.1584 
 279   0.0000       1.160769        31.5861 
 280   0.0000       1.172506        31.9055 
 281   0.0000       1.186850        32.2958 
 282   0.0000       1.202035        32.7090 
 283   0.0000       1.212525        32.9945 
 284   0.0000       1.218456        33.1559 
 285   0.0000       1.221078        33.2272 
 286   0.0000       1.226623        33.3781 
 287   0.0000       1.232336        33.5336 
 288   0.0000       1.238643        33.7052 
 289   0.0000       1.243178        33.8286 
 290   0.0000       1.247696        33.9515 
 291   0.0000       1.251735        34.0614 
 292   0.0000       1.252705        34.0878 
 293   0.0000       1.258839        34.2547 
 294   0.0000       1.270597        34.5747 
 295   0.0000       1.282166        34.8895 
 296   0.0000       1.282960        34.9111 
 297   0.0000       1.288493        35.0617 
 298   0.0000       1.294383        35.2220 
 299   0.0000       1.300600        35.3911 
 300   0.0000       1.309315        35.6283 
 301   0.0000       1.310063        35.6486 
 302   0.0000       1.315804        35.8049 
 303   0.0000       1.320279        35.9266 
 304   0.0000       1.326865        36.1058 
 305   0.0000       1.336397        36.3652 
 306   0.0000       1.359679        36.9987 
 307   0.0000       1.362891        37.0862 
 308   0.0000       1.364752        37.1368 
 309   0.0000       1.366297        37.1788 
 310   0.0000       1.372420        37.3454 
 311   0.0000       1.375605        37.4321 
 312   0.0000       1.389720        37.8162 
 313   0.0000       1.391586        37.8670 
 314   0.0000       1.397665        38.0324 
 315   0.0000       1.416279        38.5389 
 316   0.0000       1.418470        38.5985 
 317   0.0000       1.421568        38.6828 
 318   0.0000       1.430963        38.9385 
 319   0.0000       1.431779        38.9607 
 320   0.0000       1.433949        39.0197 
 321   0.0000       1.434480        39.0342 
 322   0.0000       1.458571        39.6897 
 323   0.0000       1.473103        40.0852 
 324   0.0000       1.483460        40.3670 
 325   0.0000       1.488302        40.4988 
 326   0.0000       1.496143        40.7121 
 327   0.0000       1.502342        40.8808 
 328   0.0000       1.510680        41.1077 
 329   0.0000       1.517774        41.3007 
 330   0.0000       1.524250        41.4769 
 331   0.0000       1.531680        41.6791 
 332   0.0000       1.539239        41.8848 
 333   0.0000       1.543411        41.9983 
 334   0.0000       1.544592        42.0305 
 335   0.0000       1.549731        42.1703 
 336   0.0000       1.559289        42.4304 
 337   0.0000       1.570492        42.7353 
 338   0.0000       1.571604        42.7655 
 339   0.0000       1.579478        42.9798 
 340   0.0000       1.589687        43.2576 
 341   0.0000       1.591624        43.3103 
 342   0.0000       1.603389        43.6304 
 343   0.0000       1.609098        43.7858 
 344   0.0000       1.609769        43.8040 
 345   0.0000       1.622813        44.1590 
 346   0.0000       1.624404        44.2023 
 347   0.0000       1.637584        44.5609 
 348   0.0000       1.646427        44.8016 
 349   0.0000       1.647103        44.8200 
 350   0.0000       1.649203        44.8771 
 351   0.0000       1.651788        44.9474 
 352   0.0000       1.659906        45.1683 
 353   0.0000       1.665498        45.3205 
 354   0.0000       1.671505        45.4840 
 355   0.0000       1.685991        45.8782 
 356   0.0000       1.699824        46.2546 
 357   0.0000       1.713947        46.6389 
 358   0.0000       1.718305        46.7575 
 359   0.0000       1.719271        46.7838 
 360   0.0000       1.724960        46.9386 
 361   0.0000       1.726591        46.9829 
 362   0.0000       1.731261        47.1100 
 363   0.0000       1.742062        47.4039 
 364   0.0000       1.745003        47.4839 
 365   0.0000       1.751135        47.6508 
 366   0.0000       1.755619        47.7728 
 367   0.0000       1.761180        47.9241 
 368   0.0000       1.768200        48.1152 
 369   0.0000       1.768826        48.1322 
 370   0.0000       1.783746        48.5382 
 371   0.0000       1.784028        48.5459 
 372   0.0000       1.796430        48.8833 
 373   0.0000       1.818580        49.4861 
 374   0.0000       1.833991        49.9054 
 375   0.0000       1.834500        49.9193 
 376   0.0000       1.848987        50.3135 
 377   0.0000       1.875225        51.0275 
 378   0.0000       1.878519        51.1171 
 379   0.0000       1.888907        51.3998 
 380   0.0000       1.909587        51.9625 
 381   0.0000       1.910913        51.9986 
 382   0.0000       1.918107        52.1944 
 383   0.0000       1.921848        52.2962 
 384   0.0000       1.932154        52.5766 
 385   0.0000       1.953533        53.1583 
 386   0.0000       1.960915        53.3592 
 387   0.0000       1.973089        53.6905 
 388   0.0000       1.973766        53.7089 
 389   0.0000       1.987842        54.0919 
 390   0.0000       1.990270        54.1580 
 391   0.0000       1.998089        54.3708 
 392   0.0000       2.007515        54.6273 
 393   0.0000       2.015868        54.8545 
 394   0.0000       2.033605        55.3372 
 395   0.0000       2.039075        55.4861 
 396   0.0000       2.039356        55.4937 
 397   0.0000       2.042333        55.5747 
 398   0.0000       2.080373        56.6098 
 399   0.0000       2.085513        56.7497 
 400   0.0000       2.102557        57.2135 
[...]
-----------------------------------------------------------------------
Final Gibbs free energy         ...   -923.37127905 Eh

For completeness - the Gibbs free energy minus the electronic energy
G-E(el)                           ...     -3.53776251 Eh  -2219.97 kcal/mol


The first frequency considered to be a vibration is 6
The total number of vibrations considered is 93


--------------------------
THERMOCHEMISTRY AT 8000.00K
--------------------------

Temperature         ... 8000.00 K
Pressure            ... 1.00 atm
Total Mass          ... 297.34 AMU

Throughout the following assumptions are being made:
  (1) The electronic state is orbitally nondegenerate
      but the spin degeneracy is treated
  (2) There are no thermally accessible electronically excited states
  (3) Hindered rotations indicated by low frequency modes are not
      treated as such but are treated as vibrations and this may
      cause some error
  (4) All equations used are the standard statistical mechanics
      equations for an ideal gas
  (5) All vibrations are strictly harmonic

freq.      87.44  E(vib)   ...      15.77 
freq.      89.22  E(vib)   ...      15.77 
freq.     128.71  E(vib)   ...      15.71 
freq.     170.47  E(vib)   ...      15.66 
freq.     227.54  E(vib)   ...      15.57 
freq.     295.92  E(vib)   ...      15.48 
freq.     301.17  E(vib)   ...      15.47 
freq.     308.44  E(vib)   ...      15.46 
freq.     336.98  E(vib)   ...      15.42 
freq.     360.27  E(vib)   ...      15.39 
freq.     367.04  E(vib)   ...      15.38 
freq.     389.74  E(vib)   ...      15.35 
freq.     395.00  E(vib)   ...      15.34 
freq.     447.39  E(vib)   ...      15.27 
freq.     455.62  E(vib)   ...      15.26 
freq.     458.43  E(vib)   ...      15.25 
freq.     475.69  E(vib)   ...      15.23 
freq.     496.93  E(vib)   ...      15.20 
freq.     504.14  E(vib)   ...      15.19 
freq.     506.89  E(vib)   ...      15.18 
freq.     512.29  E(vib)   ...      15.18 
freq.     545.28  E(vib)   ...      15.13 
freq.     559.27  E(vib)   ...      15.11 
freq.     584.25  E(vib)   ...      15.08 
freq.     591.99  E(vib)   ...      15.07 
freq.     645.92  E(vib)   ...      14.99 
freq.     654.08  E(vib)   ...      14.98 
freq.     676.57  E(vib)   ...      14.95 
freq.     683.87  E(vib)   ...      14.94 
freq.     687.94  E(vib)   ...      14.93 
freq.     698.97  E(vib)   ...      14.92 
freq.     744.17  E(vib)   ...      14.86 
freq.     773.39  E(vib)   ...      14.82 
freq.     795.44  E(vib)   ...      14.79 
freq.     814.05  E(vib)   ...      14.76 
freq.     836.06  E(vib)   ...      14.73 
freq.     837.87  E(vib)   ...      14.73 
freq.     839.04  E(vib)   ...      14.73 
freq.     841.32  E(vib)   ...      14.73 
freq.     862.59  E(vib)   ...      14.70 
freq.     882.44  E(vib)   ...      14.67 
freq.     893.49  E(vib)   ...      14.65 
freq.     911.35  E(vib)   ...      14.63 
freq.     951.90  E(vib)   ...      14.58 
freq.     984.88  E(vib)   ...      14.53 
freq.     992.26  E(vib)   ...      14.52 
freq.     995.03  E(vib)   ...      14.52 
freq.    1001.63  E(vib)   ...      14.51 
freq.    1003.33  E(vib)   ...      14.51 
freq.    1017.06  E(vib)   ...      14.49 
freq.    1051.91  E(vib)   ...      14.44 
freq.    1146.70  E(vib)   ...      14.32 
freq.    1148.30  E(vib)   ...      14.31 
freq.    1165.04  E(vib)   ...      14.29 
freq.    1173.80  E(vib)   ...      14.28 
freq.    1201.68  E(vib)   ...      14.24 
freq.    1214.46  E(vib)   ...      14.23 
freq.    1227.09  E(vib)   ...      14.21 
freq.    1249.38  E(vib)   ...      14.18 
freq.    1252.47  E(vib)   ...      14.17 
freq.    1255.82  E(vib)   ...      14.17 
freq.    1297.56  E(vib)   ...      14.12 
freq.    1308.94  E(vib)   ...      14.10 
freq.    1345.90  E(vib)   ...      14.05 
freq.    1365.45  E(vib)   ...      14.03 
freq.    1380.08  E(vib)   ...      14.01 
freq.    1405.51  E(vib)   ...      13.97 
freq.    1414.51  E(vib)   ...      13.96 
freq.    1426.32  E(vib)   ...      13.95 
freq.    1442.13  E(vib)   ...      13.93 
freq.    1456.69  E(vib)   ...      13.91 
freq.    1476.62  E(vib)   ...      13.88 
freq.    1479.26  E(vib)   ...      13.88 
freq.    1496.09  E(vib)   ...      13.86 
freq.    1550.85  E(vib)   ...      13.78 
freq.    1557.28  E(vib)   ...      13.78 
freq.    1573.51  E(vib)   ...      13.75 
freq.    1594.13  E(vib)   ...      13.73 
freq.    1608.68  E(vib)   ...      13.71 
freq.    1665.44  E(vib)   ...      13.64 
freq.    1679.53  E(vib)   ...      13.62 
freq.    1687.10  E(vib)   ...      13.61 
freq.    1692.51  E(vib)   ...      13.60 
freq.    2127.56  E(vib)   ...      13.05 
freq.    3204.70  E(vib)   ...      11.75 
freq.    3205.06  E(vib)   ...      11.75 
freq.    3209.27  E(vib)   ...      11.75 
freq.    3211.70  E(vib)   ...      11.75 
freq.    3212.90  E(vib)   ...      11.74 
freq.    3221.23  E(vib)   ...      11.74 
freq.    3229.59  E(vib)   ...      11.73 
freq.    3237.18  E(vib)   ...      11.72 
freq.    3238.51  E(vib)   ...      11.72 

------------
INNER ENERGY
------------

The inner energy is: U= E(el) + E(ZPE) + E(vib) + E(rot) + E(trans)
    E(el)   - is the total energy from the electronic structure calculation
              = E(kin-el) + E(nuc-el) + E(el-el) + E(nuc-nuc)
    E(ZPE)  - the the zero temperature vibrational energy from the frequency calculation
    E(vib)  - the the finite temperature correction to E(ZPE) due to population
              of excited vibrational states
    E(rot)  - is the rotational thermal energy
    E(trans)- is the translational thermal energy

Summary of contributions to the inner energy U:
Electronic energy                ...   -919.83351654 Eh
Zero point energy                ...      0.24537965 Eh     153.98 kcal/mol
Thermal vibrational correction   ...      2.12339344 Eh    1332.45 kcal/mol
Thermal rotational correction    ...      0.03800158 Eh      23.85 kcal/mol
Thermal translational correction ...      0.03800158 Eh      23.85 kcal/mol
-----------------------------------------------------------------------
Total thermal energy                   -917.38874029 Eh


Summary of corrections to the electronic energy:
(perhaps to be used in another calculation)
Total thermal correction                  2.19939660 Eh    1380.14 kcal/mol
Non-thermal (ZPE) correction              0.24537965 Eh     153.98 kcal/mol
-----------------------------------------------------------------------
Total correction                          2.44477625 Eh    1534.12 kcal/mol


--------
ENTHALPY
--------

The enthalpy is H = U + kB*T
                kB is Boltzmann's constant
Total free energy                 ...   -917.38874029 Eh 
Thermal Enthalpy correction       ...      0.02533514 Eh      15.90 kcal/mol
-----------------------------------------------------------------------
Total Enthalpy                    ...   -917.36340515 Eh


Note: Rotational entropy computed according to Herzberg 
Infrared and Raman Spectra, Chapter V,1, Van Nostrand Reinhold, 1945 
Point Group:  Cs, Symmetry Number:   1  
Rotational constants in cm-1:     0.011859     0.011185     0.005756 

Vibrational entropy computed according to the QRRHO of S. Grimme
Chem.Eur.J. 2012 18 9955


-------
ENTROPY
-------

The entropy contributions are T*S = T*(S(el)+S(vib)+S(rot)+S(trans))
     S(el)   - electronic entropy
     S(vib)  - vibrational entropy
     S(rot)  - rotational entropy
     S(trans)- translational entropy
The entropies will be listed as multiplied by the temperature to get
units of energy

Electronic entropy                ...      0.01756046 Eh     11.02 kcal/mol
Vibrational entropy               ...      6.56033496 Eh   4116.66 kcal/mol
Rotational entropy                ...      0.55862732 Eh    350.54 kcal/mol
Translational entropy             ...      0.75611570 Eh    474.47 kcal/mol
-----------------------------------------------------------------------
Final entropy term                ...      7.89263845 Eh   4952.69 kcal/mol

In case the symmetry of your molecule has not been determined correctly
or in case you have a reason to use a different symmetry number we print 
out the resulting rotational entropy values for sn=1,12 :
 --------------------------------------------------------
|  sn= 1 | S(rot)=       0.55862732 Eh    350.54 kcal/mol|
|  sn= 2 | S(rot)=       0.54106686 Eh    339.52 kcal/mol|
|  sn= 3 | S(rot)=       0.53079465 Eh    333.08 kcal/mol|
|  sn= 4 | S(rot)=       0.52350640 Eh    328.50 kcal/mol|
|  sn= 5 | S(rot)=       0.51785320 Eh    324.96 kcal/mol|
|  sn= 6 | S(rot)=       0.51323419 Eh    322.06 kcal/mol|
|  sn= 7 | S(rot)=       0.50932888 Eh    319.61 kcal/mol|
|  sn= 8 | S(rot)=       0.50594594 Eh    317.49 kcal/mol|
|  sn= 9 | S(rot)=       0.50296198 Eh    315.61 kcal/mol|
|  sn=10 | S(rot)=       0.50029274 Eh    313.94 kcal/mol|
|  sn=11 | S(rot)=       0.49787811 Eh    312.42 kcal/mol|
|  sn=12 | S(rot)=       0.49567373 Eh    311.04 kcal/mol|
 --------------------------------------------------------


-------------------
GIBBS FREE ENERGY
-------------------

The Gibbs free energy is G = H - T*S

Total enthalpy                    ...   -917.36340515 Eh 
Total entropy correction          ...     -7.89263845 Eh  -4952.69 kcal/mol
-----------------------------------------------------------------------
Final Gibbs free energy         ...   -925.25604359 Eh

For completeness - the Gibbs free energy minus the electronic energy
G-E(el)                           ...     -5.42252705 Eh  -3402.68 kcal/mol


The first frequency considered to be a vibration is 6
The total number of vibrations considered is 93


--------------------------
THERMOCHEMISTRY AT 10000.00K
--------------------------

Temperature         ... 10000.00 K
Pressure            ... 1.00 atm
Total Mass          ... 297.34 AMU

Throughout the following assumptions are being made:
  (1) The electronic state is orbitally nondegenerate
      but the spin degeneracy is treated
  (2) There are no thermally accessible electronically excited states
  (3) Hindered rotations indicated by low frequency modes are not
      treated as such but are treated as vibrations and this may
      cause some error
  (4) All equations used are the standard statistical mechanics
      equations for an ideal gas
  (5) All vibrations are strictly harmonic

freq.      87.44  E(vib)   ...      19.75 
freq.      89.22  E(vib)   ...      19.75 
freq.     128.71  E(vib)   ...      19.69 
freq.     170.47  E(vib)   ...      19.63 
freq.     227.54  E(vib)   ...      19.55 
freq.     295.92  E(vib)   ...      19.45 
freq.     301.17  E(vib)   ...      19.45 
freq.     308.44  E(vib)   ...      19.43 
freq.     336.98  E(vib)   ...      19.39 
freq.     360.27  E(vib)   ...      19.36 
freq.     367.04  E(vib)   ...      19.35 
freq.     389.74  E(vib)   ...      19.32 
freq.     395.00  E(vib)   ...      19.31 
freq.     447.39  E(vib)   ...      19.24 
freq.     455.62  E(vib)   ...      19.23 
freq.     458.43  E(vib)   ...      19.22 
freq.     475.69  E(vib)   ...      19.20 
freq.     496.93  E(vib)   ...      19.17 
freq.     504.14  E(vib)   ...      19.16 
freq.     506.89  E(vib)   ...      19.16 
freq.     512.29  E(vib)   ...      19.15 
freq.     545.28  E(vib)   ...      19.10 
freq.     559.27  E(vib)   ...      19.08 
freq.     584.25  E(vib)   ...      19.05 
freq.     591.99  E(vib)   ...      19.04 
freq.     645.92  E(vib)   ...      18.96 
freq.     654.08  E(vib)   ...      18.95 
freq.     676.57  E(vib)   ...      18.92 
freq.     683.87  E(vib)   ...      18.91 
freq.     687.94  E(vib)   ...      18.91 
freq.     698.97  E(vib)   ...      18.89 
freq.     744.17  E(vib)   ...      18.83 
freq.     773.39  E(vib)   ...      18.79 
freq.     795.44  E(vib)   ...      18.76 
freq.     814.05  E(vib)   ...      18.73 
freq.     836.06  E(vib)   ...      18.70 
freq.     837.87  E(vib)   ...      18.70 
freq.     839.04  E(vib)   ...      18.70 
freq.     841.32  E(vib)   ...      18.69 
freq.     862.59  E(vib)   ...      18.66 
freq.     882.44  E(vib)   ...      18.64 
freq.     893.49  E(vib)   ...      18.62 
freq.     911.35  E(vib)   ...      18.60 
freq.     951.90  E(vib)   ...      18.54 
freq.     984.88  E(vib)   ...      18.50 
freq.     992.26  E(vib)   ...      18.49 
freq.     995.03  E(vib)   ...      18.48 
freq.    1001.63  E(vib)   ...      18.47 
freq.    1003.33  E(vib)   ...      18.47 
freq.    1017.06  E(vib)   ...      18.45 
freq.    1051.91  E(vib)   ...      18.41 
freq.    1146.70  E(vib)   ...      18.28 
freq.    1148.30  E(vib)   ...      18.28 
freq.    1165.04  E(vib)   ...      18.25 
freq.    1173.80  E(vib)   ...      18.24 
freq.    1201.68  E(vib)   ...      18.20 
freq.    1214.46  E(vib)   ...      18.19 
freq.    1227.09  E(vib)   ...      18.17 
freq.    1249.38  E(vib)   ...      18.14 
freq.    1252.47  E(vib)   ...      18.14 
freq.    1255.82  E(vib)   ...      18.13 
freq.    1297.56  E(vib)   ...      18.08 
freq.    1308.94  E(vib)   ...      18.06 
freq.    1345.90  E(vib)   ...      18.01 
freq.    1365.45  E(vib)   ...      17.98 
freq.    1380.08  E(vib)   ...      17.96 
freq.    1405.51  E(vib)   ...      17.93 
freq.    1414.51  E(vib)   ...      17.92 
freq.    1426.32  E(vib)   ...      17.90 
freq.    1442.13  E(vib)   ...      17.88 
freq.    1456.69  E(vib)   ...      17.86 
freq.    1476.62  E(vib)   ...      17.84 
freq.    1479.26  E(vib)   ...      17.83 
freq.    1496.09  E(vib)   ...      17.81 
freq.    1550.85  E(vib)   ...      17.74 
freq.    1557.28  E(vib)   ...      17.73 
freq.    1573.51  E(vib)   ...      17.71 
freq.    1594.13  E(vib)   ...      17.68 
freq.    1608.68  E(vib)   ...      17.66 
freq.    1665.44  E(vib)   ...      17.59 
freq.    1679.53  E(vib)   ...      17.57 
freq.    1687.10  E(vib)   ...      17.56 
freq.    1692.51  E(vib)   ...      17.55 
freq.    2127.56  E(vib)   ...      16.99 
freq.    3204.70  E(vib)   ...      15.64 
freq.    3205.06  E(vib)   ...      15.64 
freq.    3209.27  E(vib)   ...      15.64 
freq.    3211.70  E(vib)   ...      15.63 
freq.    3212.90  E(vib)   ...      15.63 
freq.    3221.23  E(vib)   ...      15.62 
freq.    3229.59  E(vib)   ...      15.61 
freq.    3237.18  E(vib)   ...      15.60 
freq.    3238.51  E(vib)   ...      15.60 

------------
INNER ENERGY
------------

The inner energy is: U= E(el) + E(ZPE) + E(vib) + E(rot) + E(trans)
    E(el)   - is the total energy from the electronic structure calculation
              = E(kin-el) + E(nuc-el) + E(el-el) + E(nuc-nuc)
    E(ZPE)  - the the zero temperature vibrational energy from the frequency calculation
    E(vib)  - the the finite temperature correction to E(ZPE) due to population
              of excited vibrational states
    E(rot)  - is the rotational thermal energy
    E(trans)- is the translational thermal energy

Summary of contributions to the inner energy U:
Electronic energy                ...   -919.83351654 Eh
Zero point energy                ...      0.24537965 Eh     153.98 kcal/mol
Thermal vibrational correction   ...      2.70992641 Eh    1700.50 kcal/mol
Thermal rotational correction    ...      0.04750198 Eh      29.81 kcal/mol
Thermal translational correction ...      0.04750198 Eh      29.81 kcal/mol
-----------------------------------------------------------------------
Total thermal energy                   -916.78320653 Eh


Summary of corrections to the electronic energy:
(perhaps to be used in another calculation)
Total thermal correction                  2.80493037 Eh    1760.12 kcal/mol
Non-thermal (ZPE) correction              0.24537965 Eh     153.98 kcal/mol
-----------------------------------------------------------------------
Total correction                          3.05031001 Eh    1914.09 kcal/mol


--------
ENTHALPY
--------

The enthalpy is H = U + kB*T
                kB is Boltzmann's constant
Total free energy                 ...   -916.78320653 Eh 
Thermal Enthalpy correction       ...      0.03166893 Eh      19.87 kcal/mol
-----------------------------------------------------------------------
Total Enthalpy                    ...   -916.75153760 Eh


Note: Rotational entropy computed according to Herzberg 
Infrared and Raman Spectra, Chapter V,1, Van Nostrand Reinhold, 1945 
Point Group:  Cs, Symmetry Number:   1  
Rotational constants in cm-1:     0.011859     0.011185     0.005756 

Vibrational entropy computed according to the QRRHO of S. Grimme
Chem.Eur.J. 2012 18 9955


-------
ENTROPY
-------

The entropy contributions are T*S = T*(S(el)+S(vib)+S(rot)+S(trans))
     S(el)   - electronic entropy
     S(vib)  - vibrational entropy
     S(rot)  - rotational entropy
     S(trans)- translational entropy
The entropies will be listed as multiplied by the temperature to get
units of energy

Electronic entropy                ...      0.02195057 Eh     13.77 kcal/mol
Vibrational entropy               ...      8.84862843 Eh   5552.59 kcal/mol
Rotational entropy                ...      0.70888391 Eh    444.83 kcal/mol
Translational entropy             ...      0.96281089 Eh    604.17 kcal/mol
-----------------------------------------------------------------------
Final entropy term                ...     10.54227381 Eh   6615.36 kcal/mol

In case the symmetry of your molecule has not been determined correctly
or in case you have a reason to use a different symmetry number we print 
out the resulting rotational entropy values for sn=1,12 :
 --------------------------------------------------------
|  sn= 1 | S(rot)=       0.70888391 Eh    444.83 kcal/mol|
|  sn= 2 | S(rot)=       0.68693334 Eh    431.06 kcal/mol|
|  sn= 3 | S(rot)=       0.67409307 Eh    423.00 kcal/mol|
|  sn= 4 | S(rot)=       0.66498276 Eh    417.28 kcal/mol|
|  sn= 5 | S(rot)=       0.65791626 Eh    412.85 kcal/mol|
|  sn= 6 | S(rot)=       0.65214250 Eh    409.22 kcal/mol|
|  sn= 7 | S(rot)=       0.64726086 Eh    406.16 kcal/mol|
|  sn= 8 | S(rot)=       0.64303219 Eh    403.51 kcal/mol|
|  sn= 9 | S(rot)=       0.63930224 Eh    401.17 kcal/mol|
|  sn=10 | S(rot)=       0.63596568 Eh    399.07 kcal/mol|
|  sn=11 | S(rot)=       0.63294740 Eh    397.18 kcal/mol|
|  sn=12 | S(rot)=       0.63019193 Eh    395.45 kcal/mol|
 --------------------------------------------------------


-------------------
GIBBS FREE ENERGY
-------------------

The Gibbs free energy is G = H - T*S

Total enthalpy                    ...   -916.75153760 Eh 
Total entropy correction          ...    -10.54227381 Eh  -6615.36 kcal/mol
-----------------------------------------------------------------------
Final Gibbs free energy         ...   -927.29381141 Eh

For completeness - the Gibbs free energy minus the electronic energy
G-E(el)                           ...     -7.46029487 Eh  -4681.40 kcal/mol


Timings for individual modules:

Sum of individual times         ...    16765.966 sec (= 279.433 min)
GTO integral calculation        ...       53.138 sec (=   0.886 min)   0.3 %
SCF iterations                  ...     2353.772 sec (=  39.230 min)  14.0 %
SCF Gradient evaluation         ...      545.812 sec (=   9.097 min)   3.3 %
Geometry relaxation             ...       31.611 sec (=   0.527 min)   0.2 %
Analytical frequency calculation...    13781.633 sec (= 229.694 min)  82.2 %
                             ****ORCA TERMINATED NORMALLY****
TOTAL RUN TIME: 0 days 4 hours 39 minutes 36 seconds 180 msec
