
                                 *****************
                                 * O   R   C   A *
                                 *****************

                                            #,                                       
                                            ###                                      
                                            ####                                     
                                            #####                                    
                                            ######                                   
                                           ########,                                 
                                     ,,################,,,,,                         
                               ,,#################################,,                 
                          ,,##########################################,,             
                       ,#########################################, ''#####,          
                    ,#############################################,,   '####,        
                  ,##################################################,,,,####,       
                ,###########''''           ''''###############################       
              ,#####''   ,,,,##########,,,,          '''####'''          '####       
            ,##' ,,,,###########################,,,                        '##       
           ' ,,###''''                  '''############,,,                           
         ,,##''                                '''############,,,,        ,,,,,,###''
      ,#''                                            '''#######################'''  
     '                                                          ''''####''''         
             ,#######,   #######,   ,#######,      ##                                
            ,#'     '#,  ##    ##  ,#'     '#,    #''#        ######   ,####,        
            ##       ##  ##   ,#'  ##            #'  '#       #        #'  '#        
            ##       ##  #######   ##           ,######,      #####,   #    #        
            '#,     ,#'  ##    ##  '#,     ,#' ,#      #,         ##   #,  ,#        
             '#######'   ##     ##  '#######'  #'      '#     #####' # '####'        



                  #######################################################
                  #                        -***-                        #
                  #          Department of theory and spectroscopy      #
                  #    Directorship and core code : Frank Neese         #
                  #        Max Planck Institute fuer Kohlenforschung    #
                  #                Kaiser Wilhelm Platz 1               #
                  #                 D-45470 Muelheim/Ruhr               #
                  #                      Germany                        #
                  #                                                     #
                  #                  All rights reserved                #
                  #                        -***-                        #
                  #######################################################



                         Program Version 5.0.4 -  RELEASE  -

 With contributions from (in alphabetic order):
   Daniel Aravena         : Magnetic Suceptibility
   Michael Atanasov       : Ab Initio Ligand Field Theory (pilot matlab implementation)
   Alexander A. Auer      : GIAO ZORA, VPT2 properties, NMR spectrum
   Ute Becker             : Parallelization
   Giovanni Bistoni       : ED, misc. LED, open-shell LED, HFLD
   Martin Brehm           : Molecular dynamics
   Dmytro Bykov           : SCF Hessian
   Vijay G. Chilkuri      : MRCI spin determinant printing, contributions to CSF-ICE
   Dipayan Datta          : RHF DLPNO-CCSD density
   Achintya Kumar Dutta   : EOM-CC, STEOM-CC
   Dmitry Ganyushin       : Spin-Orbit,Spin-Spin,Magnetic field MRCI
   Miquel Garcia          : C-PCM and meta-GGA Hessian, CC/C-PCM, Gaussian charge scheme
   Yang Guo               : DLPNO-NEVPT2, F12-NEVPT2, CIM, IAO-localization
   Andreas Hansen         : Spin unrestricted coupled pair/coupled cluster methods
   Benjamin Helmich-Paris : MC-RPA, TRAH-SCF, COSX integrals
   Lee Huntington         : MR-EOM, pCC
   Robert Izsak           : Overlap fitted RIJCOSX, COSX-SCS-MP3, EOM
   Marcus Kettner         : VPT2
   Christian Kollmar      : KDIIS, OOCD, Brueckner-CCSD(T), CCSD density, CASPT2, CASPT2-K
   Simone Kossmann        : Meta GGA functionals, TD-DFT gradient, OOMP2, MP2 Hessian
   Martin Krupicka        : Initial AUTO-CI
   Lucas Lang             : DCDCAS
   Marvin Lechner         : AUTO-CI (C++ implementation), FIC-MRCC
   Dagmar Lenk            : GEPOL surface, SMD
   Dimitrios Liakos       : Extrapolation schemes; Compound Job, initial MDCI parallelization
   Dimitrios Manganas     : Further ROCIS development; embedding schemes
   Dimitrios Pantazis     : SARC Basis sets
   Anastasios Papadopoulos: AUTO-CI, single reference methods and gradients
   Taras Petrenko         : DFT Hessian,TD-DFT gradient, ASA, ECA, R-Raman, ABS, FL, XAS/XES, NRVS
   Peter Pinski           : DLPNO-MP2, DLPNO-MP2 Gradient
   Christoph Reimann      : Effective Core Potentials
   Marius Retegan         : Local ZFS, SOC
   Christoph Riplinger    : Optimizer, TS searches, QM/MM, DLPNO-CCSD(T), (RO)-DLPNO pert. Triples
   Tobias Risthaus        : Range-separated hybrids, TD-DFT gradient, RPA, STAB
   Michael Roemelt        : Original ROCIS implementation
   Masaaki Saitow         : Open-shell DLPNO-CCSD energy and density
   Barbara Sandhoefer     : DKH picture change effects
   Avijit Sen             : IP-ROCIS
   Kantharuban Sivalingam : CASSCF convergence, NEVPT2, FIC-MRCI
   Bernardo de Souza      : ESD, SOC TD-DFT
   Georgi Stoychev        : AutoAux, RI-MP2 NMR, DLPNO-MP2 response
   Willem Van den Heuvel  : Paramagnetic NMR
   Boris Wezisla          : Elementary symmetry handling
   Frank Wennmohs         : Technical directorship


 We gratefully acknowledge several colleagues who have allowed us to
 interface, adapt or use parts of their codes:
   Stefan Grimme, W. Hujo, H. Kruse, P. Pracht,  : VdW corrections, initial TS optimization,
                  C. Bannwarth, S. Ehlert          DFT functionals, gCP, sTDA/sTD-DF
   Ed Valeev, F. Pavosevic, A. Kumar             : LibInt (2-el integral package), F12 methods
   Garnet Chan, S. Sharma, J. Yang, R. Olivares  : DMRG
   Ulf Ekstrom                                   : XCFun DFT Library
   Mihaly Kallay                                 : mrcc  (arbitrary order and MRCC methods)
   Jiri Pittner, Ondrej Demel                    : Mk-CCSD
   Frank Weinhold                                : gennbo (NPA and NBO analysis)
   Christopher J. Cramer and Donald G. Truhlar   : smd solvation model
   Lars Goerigk                                  : TD-DFT with DH, B97 family of functionals
   V. Asgeirsson, H. Jonsson                     : NEB implementation
   FAccTs GmbH                                   : IRC, NEB, NEB-TS, DLPNO-Multilevel, CI-OPT
                                                   MM, QMMM, 2- and 3-layer-ONIOM, Crystal-QMMM,
                                                   LR-CPCM, SF, NACMEs, symmetry and pop. for TD-DFT,
                                                   nearIR, NL-DFT gradient (VV10), updates on ESD,
                                                   ML-optimized integration grids
   S Lehtola, MJT Oliveira, MAL Marques          : LibXC Library
   Liviu Ungur et al                             : ANISO software


 Your calculation uses the libint2 library for the computation of 2-el integrals
 For citations please refer to: http://libint.valeyev.net

 Your ORCA version has been built with support for libXC version: 5.1.0
 For citations please refer to: https://tddft.org/programs/libxc/

 This ORCA versions uses:
   CBLAS   interface :  Fast vector & matrix operations
   LAPACKE interface :  Fast linear algebra routines
   Shared memory     :  Shared parallel matrices


Your calculation utilizes the atom-pairwise dispersion correction
based on tight binding partial charges (D4)
Cite in your paper:
E.Caldeweyher, C.Bannwarth, S.Grimme, J.Chem.Phys., (2017), 147, 034112.
E.Caldeweyher, S.Ehlert, A.Hansen, H.Neugebauer, S.Grimme, J.Chem.Phys., (2018), in progress.
   

================================================================================

----- Orbital basis set information -----
Your calculation utilizes the basis: 6-311+G**
   H, Li - Ne  : R. Krishnan, J. S. Binkley, R. Seeger and J. A. Pople, J. Chem. Phys. 72, 650 (1980).
   Na - Ar     : A. D. McLean and G. S. Chandler J. Chem. Phys. 72, 5639, (1980).
   K  - Ca     : J.-P. Blaudeau, M. P. McGrath, L. A. Curtiss and L. Radom, J. Chem. Phys. 107, 5016 (1997).
   Ga - Kr     : L. A. Curtiss, M. P. McGrath, J.-P. Blandeau, N. E. Davis, R. C. Binning and L. Radom, J. Chem. Phys. 103, 6104 (1995).
   Pol./Diff.
   H, Li - Cl  : T. Clark, J. Chandrasekhar and P. v. R. Schleyer, J. Comp. Chem. 4, 294 (1983).
   H - Ne      : M. J. Frisch, J. A. Pople and J. S. Binkley, J. Chem. Phys. 80, 3265 (1984).

----- AuxJ basis set information -----
Your calculation utilizes the auxiliary basis: def2/J
   F. Weigend, Phys. Chem. Chem. Phys. 8, 1057 (2006).

================================================================================
                                        WARNINGS
                       Please study these warnings very carefully!
================================================================================

INFO   : Checking CIS options ...

WARNING: CIS/ROCIS methods need fully converged wavefunctions
  ===> : Setting SCFConvForced true
         You can overwrite this default with %scf ConvForced false 


INFO   : the flag for use of the SHARK integral package has been found!

================================================================================
                                       INPUT FILE
================================================================================
NAME = loss_eight_seven_spectra.inp
|  1> !b3lyp 6-311+g** d4 pal4 defgrid3
|  2>   
|  3> %scf
|  4> stabperform true
|  5> Diismaxeq 15
|  6> directresetfreq 1
|  7> end
|  8> 
|  9> %tddft
| 10>   nroots 1000
| 11>   end
| 12>   
| 13>  
| 14>   
| 15> * xyz 0 1
| 16>   C   2.45809532695984     -2.79759523490044     -0.00000937038140
| 17>   C   1.28164858038698     -3.49663707920152     -0.00004051499092
| 18>   C   0.03017496876468     -2.82710938524277     -0.00011719473118
| 19>   C   -1.20272644245053     -3.53450611399031     -0.00015100469294
| 20>   C   -2.39661264665652     -2.87060595512245     -0.00022444562563
| 21>   C   -2.45065954999137     -1.44934041120254     -0.00027002870879
| 22>   C   -3.68549632351608     -0.75376990610535     -0.00034628961804
| 23>   C   -3.73326477225531      0.61633393483192     -0.00038924311157
| 24>   C   -2.54014992157865      1.36783572256768     -0.00035853123718
| 25>   C   -2.35695540451351      2.76183530738250     -0.00039244783212
| 26>   C   -1.29898369947483      3.39034792016927     -0.00036419460061
| 27>   C   0.01288762161823      2.88482399679672     -0.00029058009959
| 28>   C   1.24339712150878      3.57345987243324     -0.00025773144816
| 29>   C   2.42392367141807      2.87644518943565     -0.00018488365315
| 30>   C   2.44443184549422      1.45936938662606     -0.00014133133660
| 31>   C   3.66682849463860      0.73226281554629     -0.00006533628044
| 32>   C   3.67910990664480     -0.63371065879578     -0.00002320913166
| 33>   C   2.46835349627082     -1.37835162634668     -0.00005333675600
| 34>   C   1.23271176795151     -0.68305244447820     -0.00013043348100
| 35>   C   1.21731240572707      0.74246907120465     -0.00017162125855
| 36>   C   -0.02146708895416      1.44383432509931     -0.00025036887797
| 37>   C   -1.25802564070030      0.70908347456298     -0.00028037154615
| 38>   C   -1.23433750486085     -0.71427638888425     -0.00023903313686
| 39>   C   0.01032314157249     -1.40942838429699     -0.00016038481848
| 40>   H   3.40677014577876     -3.32377182929685      0.00004989557786
| 41>   H   1.29018803611289     -4.58141935709865     -0.00000615993004
| 42>   H   -1.17882126164712     -4.61900801903972     -0.00011671905630
| 43>   H   -3.33017371186068     -3.42302017551220     -0.00024949241119
| 44>   H   -4.60469586153521     -1.32957919465616     -0.00037038699740
| 45>   H   -4.68087418010260      1.14052010398524     -0.00044827745229
| 46>   H   1.23608022850305      4.65636454602007     -0.00029070133766
| 47>   H   3.36912646703921      3.40854233789446     -0.00015978008712
| 48>   H   4.59842216216378      1.28795485689888     -0.00004147972372
| 49>   H   4.62033591630898     -1.17295707229416      0.00003546029845
| 50> **                         ****END OF INPUT****
================================================================================

                       ****************************
                       * Single Point Calculation *
                       ****************************

---------------------------------
CARTESIAN COORDINATES (ANGSTROEM)
---------------------------------
  C      2.458095   -2.797595   -0.000009
  C      1.281649   -3.496637   -0.000041
  C      0.030175   -2.827109   -0.000117
  C     -1.202726   -3.534506   -0.000151
  C     -2.396613   -2.870606   -0.000224
  C     -2.450660   -1.449340   -0.000270
  C     -3.685496   -0.753770   -0.000346
  C     -3.733265    0.616334   -0.000389
  C     -2.540150    1.367836   -0.000359
  C     -2.356955    2.761835   -0.000392
  C     -1.298984    3.390348   -0.000364
  C      0.012888    2.884824   -0.000291
  C      1.243397    3.573460   -0.000258
  C      2.423924    2.876445   -0.000185
  C      2.444432    1.459369   -0.000141
  C      3.666828    0.732263   -0.000065
  C      3.679110   -0.633711   -0.000023
  C      2.468353   -1.378352   -0.000053
  C      1.232712   -0.683052   -0.000130
  C      1.217312    0.742469   -0.000172
  C     -0.021467    1.443834   -0.000250
  C     -1.258026    0.709083   -0.000280
  C     -1.234338   -0.714276   -0.000239
  C      0.010323   -1.409428   -0.000160
  H      3.406770   -3.323772    0.000050
  H      1.290188   -4.581419   -0.000006
  H     -1.178821   -4.619008   -0.000117
  H     -3.330174   -3.423020   -0.000249
  H     -4.604696   -1.329579   -0.000370
  H     -4.680874    1.140520   -0.000448
  H      1.236080    4.656365   -0.000291
  H      3.369126    3.408542   -0.000160
  H      4.598422    1.287955   -0.000041
  H      4.620336   -1.172957    0.000035

----------------------------
CARTESIAN COORDINATES (A.U.)
----------------------------
  NO LB      ZA    FRAG     MASS         X           Y           Z
   0 C     6.0000    0    12.011    4.645127   -5.286689   -0.000018
   1 C     6.0000    0    12.011    2.421965   -6.607686   -0.000077
   2 C     6.0000    0    12.011    0.057022   -5.342462   -0.000221
   3 C     6.0000    0    12.011   -2.272824   -6.679249   -0.000285
   4 C     6.0000    0    12.011   -4.528942   -5.424659   -0.000424
   5 C     6.0000    0    12.011   -4.631075   -2.738856   -0.000510
   6 C     6.0000    0    12.011   -6.964579   -1.424419   -0.000654
   7 C     6.0000    0    12.011   -7.054848    1.164702   -0.000736
   8 C     6.0000    0    12.011   -4.800188    2.584835   -0.000678
   9 C     6.0000    0    12.011   -4.454000    5.219112   -0.000742
  10 C     6.0000    0    12.011   -2.454723    6.406829   -0.000688
  11 C     6.0000    0    12.011    0.024354    5.451527   -0.000549
  12 C     6.0000    0    12.011    2.349680    6.752861   -0.000487
  13 C     6.0000    0    12.011    4.580552    5.435694   -0.000349
  14 C     6.0000    0    12.011    4.619307    2.757808   -0.000267
  15 C     6.0000    0    12.011    6.929302    1.383776   -0.000123
  16 C     6.0000    0    12.011    6.952510   -1.197540   -0.000044
  17 C     6.0000    0    12.011    4.664512   -2.604707   -0.000101
  18 C     6.0000    0    12.011    2.329488   -1.290782   -0.000246
  19 C     6.0000    0    12.011    2.300387    1.403063   -0.000324
  20 C     6.0000    0    12.011   -0.040567    2.728451   -0.000473
  21 C     6.0000    0    12.011   -2.377324    1.339974   -0.000530
  22 C     6.0000    0    12.011   -2.332560   -1.349787   -0.000452
  23 C     6.0000    0    12.011    0.019508   -2.663434   -0.000303
  24 H     1.0000    0     1.008    6.437863   -6.281018    0.000094
  25 H     1.0000    0     1.008    2.438102   -8.657628   -0.000012
  26 H     1.0000    0     1.008   -2.227649   -8.728660   -0.000221
  27 H     1.0000    0     1.008   -6.293116   -6.468571   -0.000471
  28 H     1.0000    0     1.008   -8.701614   -2.512541   -0.000700
  29 H     1.0000    0     1.008   -8.845570    2.155271   -0.000847
  30 H     1.0000    0     1.008    2.335853    8.799254   -0.000549
  31 H     1.0000    0     1.008    6.366726    6.441212   -0.000302
  32 H     1.0000    0     1.008    8.689759    2.433882   -0.000078
  33 H     1.0000    0     1.008    8.731170   -2.216568    0.000067

--------------------------------
INTERNAL COORDINATES (ANGSTROEM)
--------------------------------
 C      0   0   0     0.000000000000     0.00000000     0.00000000
 C      1   0   0     1.368461343471     0.00000000     0.00000000
 C      2   1   0     1.419314461085   121.13491896     0.00000000
 C      3   2   1     1.421427459550   122.00786730   179.99998126
 C      4   3   2     1.366062844430   121.07656390   179.99997656
 C      5   4   3     1.422292802545   121.25545918     0.00000000
 C      6   5   4     1.417265038949   121.56985651   179.99999915
 C      7   6   5     1.370936308328   121.38890083   179.99996106
 C      8   7   6     1.410063113771   120.20860811     0.00000000
 C      9   8   7     1.405985446118   129.69211449   179.99997186
 C     10   9   8     1.230582071173   128.20011800   180.00000724
 C     11  10   9     1.405902132308   128.21263711     0.00000000
 C     12  11  10     1.410096805050   129.69315547   179.99993216
 C     13  12  11     1.370938513815   120.20836038   180.00004515
 C     14  13  12     1.417224194688   121.38788397     0.00000000
 C     15  14  13     1.422300087647   121.57418578   180.00001898
 C     16  15  14     1.366028684714   121.26017905   179.99997660
 C      1   2   3     1.419280681328   121.13280192     0.00000000
 C     18   1   2     1.417833360806   118.95246216     0.00000000
 C     15  14  13     1.421185484947   119.46493215     0.00000000
 C     20  15  14     1.423547632506   120.18850190     0.00000000
 C     21  20  15     1.438379597033   119.76420864   180.00000460
 C      6   5   4     1.421182055663   118.96821492     0.00000000
 C      3   2   1     1.417819987640   118.94866280     0.00000000
 H      1   2   3     1.084825204291   120.26665069   179.99996548
 H      2   1   3     1.084815889414   120.26765454   180.00003320
 H      4   3   2     1.084765339094   118.58299163     0.00000000
 H      5   4   3     1.084756993055   120.30830465   180.00000283
 H      7   6   5     1.084658530625   118.54385345     0.00000000
 H      8   7   6     1.082928775708   120.94671626   179.99995078
 H     13  12  11     1.082929392937   118.84576637     0.00000000
 H     14  13  12     1.084682304123   120.06413656   179.99999791
 H     16  15  14     1.084739787583   118.43903717     0.00000000
 H     17  16  15     1.084754856722   120.32435189   180.00004786

---------------------------
INTERNAL COORDINATES (A.U.)
---------------------------
 C      0   0   0     0.000000000000     0.00000000     0.00000000
 C      1   0   0     2.586017164019     0.00000000     0.00000000
 C      2   1   0     2.682115629364   121.13491896     0.00000000
 C      3   2   1     2.686108617785   122.00786730   179.99998126
 C      4   3   2     2.581484657698   121.07656390   179.99997656
 C      5   4   3     2.687743879058   121.25545918     0.00000000
 C      6   5   4     2.678242782794   121.56985651   179.99999915
 C      7   6   5     2.590694169788   121.38890083   179.99996106
 C      8   7   6     2.664633116572   120.20860811     0.00000000
 C      9   8   7     2.656927441443   129.69211449   179.99997186
 C     10   9   8     2.325463099831   128.20011800   180.00000724
 C     11  10   9     2.656770001158   128.21263711     0.00000000
 C     12  11  10     2.664696783863   129.69315547   179.99993216
 C     13  12  11     2.590698337556   120.20836038   180.00004515
 C     14  13  12     2.678165598328   121.38788397     0.00000000
 C     15  14  13     2.687757645906   121.57418578   180.00001898
 C     16  15  14     2.581420105190   121.26017905   179.99997660
 C      1   2   3     2.682051794875   121.13280192     0.00000000
 C     18   1   2     2.679316755461   118.95246216     0.00000000
 C     15  14  13     2.685651352053   119.46493215     0.00000000
 C     20  15  14     2.690115164029   120.18850190     0.00000000
 C     21  20  15     2.718143515012   119.76420864   180.00000460
 C      6   5   4     2.685644871646   118.96821492     0.00000000
 C      3   2   1     2.679291483839   118.94866280     0.00000000
 H      1   2   3     2.050022539284   120.26665069   179.99996548
 H      2   1   3     2.050004936718   120.26765454   180.00003320
 H      4   3   2     2.049909410459   118.58299163     0.00000000
 H      5   4   3     2.049893638729   120.30830465   180.00000283
 H      7   6   5     2.049707571702   118.54385345     0.00000000
 H      8   7   6     2.046438808632   120.94671626   179.99995078
 H     13  12  11     2.046439975024   118.84576637     0.00000000
 H     14  13  12     2.049752497104   120.06413656   179.99999791
 H     16  15  14     2.049861125099   118.43903717     0.00000000
 H     17  16  15     2.049889601645   120.32435189   180.00004786

---------------------
BASIS SET INFORMATION
---------------------
There are 2 groups of distinct atoms

 Group   1 Type C   : 12s6p1d contracted to 5s4p1d pattern {63111/3111/1}
 Group   2 Type H   : 5s1p contracted to 3s1p pattern {311/1}

Atom   0C    basis set group =>   1
Atom   1C    basis set group =>   1
Atom   2C    basis set group =>   1
Atom   3C    basis set group =>   1
Atom   4C    basis set group =>   1
Atom   5C    basis set group =>   1
Atom   6C    basis set group =>   1
Atom   7C    basis set group =>   1
Atom   8C    basis set group =>   1
Atom   9C    basis set group =>   1
Atom  10C    basis set group =>   1
Atom  11C    basis set group =>   1
Atom  12C    basis set group =>   1
Atom  13C    basis set group =>   1
Atom  14C    basis set group =>   1
Atom  15C    basis set group =>   1
Atom  16C    basis set group =>   1
Atom  17C    basis set group =>   1
Atom  18C    basis set group =>   1
Atom  19C    basis set group =>   1
Atom  20C    basis set group =>   1
Atom  21C    basis set group =>   1
Atom  22C    basis set group =>   1
Atom  23C    basis set group =>   1
Atom  24H    basis set group =>   2
Atom  25H    basis set group =>   2
Atom  26H    basis set group =>   2
Atom  27H    basis set group =>   2
Atom  28H    basis set group =>   2
Atom  29H    basis set group =>   2
Atom  30H    basis set group =>   2
Atom  31H    basis set group =>   2
Atom  32H    basis set group =>   2
Atom  33H    basis set group =>   2
---------------------------------
AUXILIARY/J BASIS SET INFORMATION
---------------------------------
There are 2 groups of distinct atoms

 Group   1 Type C   : 12s5p4d2f1g contracted to 6s4p3d1f1g pattern {711111/2111/211/2/1}
 Group   2 Type H   : 5s2p1d contracted to 3s1p1d pattern {311/2/1}

Atom   0C    basis set group =>   1
Atom   1C    basis set group =>   1
Atom   2C    basis set group =>   1
Atom   3C    basis set group =>   1
Atom   4C    basis set group =>   1
Atom   5C    basis set group =>   1
Atom   6C    basis set group =>   1
Atom   7C    basis set group =>   1
Atom   8C    basis set group =>   1
Atom   9C    basis set group =>   1
Atom  10C    basis set group =>   1
Atom  11C    basis set group =>   1
Atom  12C    basis set group =>   1
Atom  13C    basis set group =>   1
Atom  14C    basis set group =>   1
Atom  15C    basis set group =>   1
Atom  16C    basis set group =>   1
Atom  17C    basis set group =>   1
Atom  18C    basis set group =>   1
Atom  19C    basis set group =>   1
Atom  20C    basis set group =>   1
Atom  21C    basis set group =>   1
Atom  22C    basis set group =>   1
Atom  23C    basis set group =>   1
Atom  24H    basis set group =>   2
Atom  25H    basis set group =>   2
Atom  26H    basis set group =>   2
Atom  27H    basis set group =>   2
Atom  28H    basis set group =>   2
Atom  29H    basis set group =>   2
Atom  30H    basis set group =>   2
Atom  31H    basis set group =>   2
Atom  32H    basis set group =>   2
Atom  33H    basis set group =>   2


           ************************************************************
           *        Program running with 4 parallel MPI-processes     *
           *              working on a common directory               *
           ************************************************************
------------------------------------------------------------------------------
                           ORCA GTO INTEGRAL CALCULATION
                           -- RI-GTO INTEGRALS CHOSEN --
------------------------------------------------------------------------------
------------------------------------------------------------------------------
                   ___                                                        
                  /   \      - P O W E R E D   B Y -                         
                 /     \                                                     
                 |  |  |   _    _      __       _____    __    __             
                 |  |  |  | |  | |    /  \     |  _  \  |  |  /  |          
                  \  \/   | |  | |   /    \    | | | |  |  | /  /          
                 / \  \   | |__| |  /  /\  \   | |_| |  |  |/  /          
                |  |  |   |  __  | /  /__\  \  |    /   |      \           
                |  |  |   | |  | | |   __   |  |    \   |  |\   \          
                \     /   | |  | | |  |  |  |  | |\  \  |  | \   \       
                 \___/    |_|  |_| |__|  |__|  |_| \__\ |__|  \__/        
                                                                              
                      - O R C A' S   B I G   F R I E N D -                    
                                      &                                       
                       - I N T E G R A L  F E E D E R -                       
                                                                              
 v1 FN, 2020, v2 2021                                                         
------------------------------------------------------------------------------


Reading SHARK input file loss_eight_seven_spectra.SHARKINP.tmp ... ok
----------------------
SHARK INTEGRAL PACKAGE
----------------------

Number of atoms                             ...     34
Number of basis functions                   ...    588
Number of shells                            ...    280
Maximum angular momentum                    ...      2
Integral batch strategy                     ... SHARK/LIBINT Hybrid
RI-J (if used) integral strategy            ... SPLIT-RIJ (Revised 2003 algorithm where possible)
Printlevel                                  ...      1
Contraction scheme used                     ... SEGMENTED contraction
Coulomb Range Separation                    ... NOT USED
Exchange Range Separation                   ... NOT USED
Finite Nucleus Model                        ... NOT USED
Auxiliary Coulomb fitting basis             ... AVAILABLE
   # of basis functions in Aux-J            ...   1286
   # of shells in Aux-J                     ...    410
   Maximum angular momentum in Aux-J        ...      4
Auxiliary J/K fitting basis                 ... NOT available
Auxiliary Correlation fitting basis         ... NOT available
Auxiliary 'external' fitting basis          ... NOT available
Integral threshold                          ...     1.000000e-10
Primitive cut-off                           ...     1.000000e-11
Primitive pair pre-selection threshold      ...     1.000000e-11

Calculating pre-screening integrals         ... done (  0.1 sec) Dimension = 280
Organizing shell pair data                  ... done (  0.2 sec)
Shell pair information
Total number of shell pairs                 ...     39340
Shell pairs after pre-screening             ...     31389
Total number of primitive shell pairs       ...    133920
Primitive shell pairs kept                  ...     69876
          la=0 lb=0:   8570 shell pairs
          la=1 lb=0:  13015 shell pairs
          la=1 lb=1:   4855 shell pairs
          la=2 lb=0:   2648 shell pairs
          la=2 lb=1:   2064 shell pairs
          la=2 lb=2:    237 shell pairs

Calculating one electron integrals          ... done (  0.1 sec)
Calculating RI/J V-Matrix + Cholesky decomp.... done (  0.1 sec)
Calculating Nuclear repulsion               ... done (  0.0 sec) ENN=   1797.863834906301 Eh

SHARK setup successfully completed in   0.8 seconds

Maximum memory used throughout the entire GTOINT-calculation: 42.5 MB


           ************************************************************
           *        Program running with 4 parallel MPI-processes     *
           *              working on a common directory               *
           ************************************************************
-------------------------------------------------------------------------------
                                 ORCA SCF
-------------------------------------------------------------------------------

------------
SCF SETTINGS
------------
Hamiltonian:
 Density Functional     Method          .... DFT(GTOs)
 Exchange Functional    Exchange        .... B88
   X-Alpha parameter    XAlpha          ....  0.666667
   Becke's b parameter  XBeta           ....  0.004200
 Correlation Functional Correlation     .... LYP
 LDA part of GGA corr.  LDAOpt          .... VWN-5
 Gradients option       PostSCFGGA      .... off
 Hybrid DFT is turned on
   Fraction HF Exchange ScalHFX         ....  0.200000
   Scaling of DF-GGA-X  ScalDFX         ....  0.720000
   Scaling of DF-GGA-C  ScalDFC         ....  0.810000
   Scaling of DF-LDA-C  ScalLDAC        ....  1.000000
   Perturbative correction              ....  0.000000
   Density functional embedding theory  .... OFF
   NL short-range parameter             ....  4.800000
 RI-approximation to the Coulomb term is turned on
   Number of AuxJ basis functions       .... 1286
   RIJ-COSX (HFX calculated with COS-X)).... on


General Settings:
 Integral files         IntName         .... loss_eight_seven_spectra
 Hartree-Fock type      HFTyp           .... RHF
 Total Charge           Charge          ....    0
 Multiplicity           Mult            ....    1
 Number of Electrons    NEL             ....  154
 Basis Dimension        Dim             ....  588
 Nuclear Repulsion      ENuc            ....   1797.8638349063 Eh

Convergence Acceleration:
 DIIS                   CNVDIIS         .... on
   Start iteration      DIISMaxIt       ....    12
   Startup error        DIISStart       ....  0.200000
   # of expansion vecs  DIISMaxEq       ....    15
   Bias factor          DIISBfac        ....   1.050
   Max. coefficient     DIISMaxC        ....  10.000
 Trust-Rad. Augm. Hess. CNVTRAH         .... auto
   Auto Start mean grad. ratio tolernc. ....  1.125000
   Auto Start start iteration           ....    20
   Auto Start num. interpolation iter.  ....    10
   Max. Number of Micro iterations      ....    16
   Max. Number of Macro iterations      .... Maxiter - #DIIS iter
   Number of Davidson start vectors     ....     2
   Converg. threshold I  (grad. norm)   ....   5.000e-05
   Converg. threshold II (energy diff.) ....   1.000e-06
   Grad. Scal. Fac. for Micro threshold ....   0.100
   Minimum threshold for Micro iter.    ....   0.010
   NR start threshold (gradient norm)   ....   0.001
   Initial trust radius                 ....   0.400
   Minimum AH scaling param. (alpha)    ....   1.000
   Maximum AH scaling param. (alpha)    .... 1000.000
   Orbital update algorithm             .... Taylor
   White noise on init. David. guess    .... on
   Maximum white noise                  ....   0.010
   Quad. conv. algorithm                .... NR
 SOSCF                  CNVSOSCF        .... on
   Start iteration      SOSCFMaxIt      ....   150
   Startup grad/error   SOSCFStart      ....  0.003300
 Level Shifting         CNVShift        .... on
   Level shift para.    LevelShift      ....    0.2500
   Turn off err/grad.   ShiftErr        ....    0.0010
 Zerner damping         CNVZerner       .... off
 Static damping         CNVDamp         .... on
   Fraction old density DampFac         ....    0.7000
   Max. Damping (<1)    DampMax         ....    0.9800
   Min. Damping (>=0)   DampMin         ....    0.0000
   Turn off err/grad.   DampErr         ....    0.1000
 Fernandez-Rico         CNVRico         .... off

SCF Procedure:
 Maximum # iterations   MaxIter         ....   125
 SCF integral mode      SCFMode         .... Direct
   Integral package                     .... SHARK and LIBINT hybrid scheme
 Reset frequency        DirectResetFreq ....     1
 Integral Threshold     Thresh          ....  1.000e-10 Eh
 Primitive CutOff       TCut            ....  1.000e-11 Eh

Convergence Tolerance:
 Convergence Check Mode ConvCheckMode   .... Total+1el-Energy
 Convergence forced     ConvForced      .... 1
 Energy Change          TolE            ....  1.000e-06 Eh
 1-El. energy change                    ....  1.000e-03 Eh
 Orbital Gradient       TolG            ....  5.000e-05
 Orbital Rotation angle TolX            ....  5.000e-05
 DIIS Error             TolErr          ....  1.000e-06


Diagonalization of the overlap matrix:
Smallest eigenvalue                        ... 2.065e-10
Time for diagonalization                   ...    0.041 sec
Threshold for overlap eigenvalues          ... 1.000e-08
Number of eigenvalues below threshold      ... 6
Smallest eigenvalue above threshold        ... 2.257e-08
Time for construction of square roots      ...    0.058 sec
Total time needed                          ...    0.101 sec

Time for model grid setup =    0.580 sec

------------------------------
INITIAL GUESS: MODEL POTENTIAL
------------------------------
Loading Hartree-Fock densities                     ... done
Calculating cut-offs                               ... done
Initializing the effective Hamiltonian             ... done
Setting up the integral package (SHARK)            ... done
Starting the Coulomb interaction                   ... done (   1.2 sec)
Reading the grid                                   ... done
Mapping shells                                     ... done
Starting the XC term evaluation                    ... done (   1.0 sec)
  promolecular density results
     # of electrons  =    153.982601289
     EX              =   -126.475254200
     EC              =     -5.263067518
     EX+EC           =   -131.738321719
Transforming the Hamiltonian                       ... done (   0.1 sec)
Diagonalizing the Hamiltonian                      ... done (   0.0 sec)
Back transforming the eigenvectors                 ... done (   0.0 sec)
Now organizing SCF variables                       ... done
                      ------------------
                      INITIAL GUESS DONE (   2.9 sec)
                      ------------------
-------------------
DFT GRID GENERATION
-------------------

General Integration Accuracy     IntAcc      ... 4.959
Radial Grid Type                 RadialGrid  ... OptM3 with GC (2021)
Angular Grid (max. ang.)         AngularGrid ... 6 (Lebedev-590)
Angular grid pruning method      GridPruning ... 4 (adaptive)
Weight generation scheme         WeightScheme... Becke
Basis function cutoff            BFCut       ... 1.0000e-10
Integration weight cutoff        WCut        ... 1.0000e-14
Angular grids for H and He will be reduced by one unit
Partially contracted basis set               ... off
Rotationally invariant grid construction     ... off

Total number of grid points                  ...   433086
Total number of batches                      ...     6784
Average number of points per batch           ...       63
Average number of grid points per atom       ...    12738
Time for grid setup =    7.739 sec

--------------------
COSX GRID GENERATION
--------------------

GRIDX 1
-------
General Integration Accuracy     IntAcc      ... 4.020
Radial Grid Type                 RadialGrid  ... OptM3 with GC (2021)
Angular Grid (max. ang.)         AngularGrid ... 2 (Lebedev-110)
Angular grid pruning method      GridPruning ... 4 (adaptive)
Weight generation scheme         WeightScheme... Becke
Basis function cutoff            BFCut       ... 1.0000e-10
Integration weight cutoff        WCut        ... 1.0000e-14
Angular grids for H and He will be reduced by one unit
Partially contracted basis set               ... on
Rotationally invariant grid construction     ... off

Total number of grid points                  ...    54931
Total number of batches                      ...      875
Average number of points per batch           ...       62
Average number of grid points per atom       ...     1616
UseSFitting                                  ... on

GRIDX 2
-------
General Integration Accuracy     IntAcc      ... 4.338
Radial Grid Type                 RadialGrid  ... OptM3 with GC (2021)
Angular Grid (max. ang.)         AngularGrid ... 3 (Lebedev-194)
Angular grid pruning method      GridPruning ... 4 (adaptive)
Weight generation scheme         WeightScheme... Becke
Basis function cutoff            BFCut       ... 1.0000e-10
Integration weight cutoff        WCut        ... 1.0000e-14
Angular grids for H and He will be reduced by one unit
Partially contracted basis set               ... on
Rotationally invariant grid construction     ... off

Total number of grid points                  ...   119014
Total number of batches                      ...     1876
Average number of points per batch           ...       63
Average number of grid points per atom       ...     3500
UseSFitting                                  ... on

GRIDX 3
-------
General Integration Accuracy     IntAcc      ... 4.871
Radial Grid Type                 RadialGrid  ... OptM3 with GC (2021)
Angular Grid (max. ang.)         AngularGrid ... 4 (Lebedev-302)
Angular grid pruning method      GridPruning ... 4 (adaptive)
Weight generation scheme         WeightScheme... Becke
Basis function cutoff            BFCut       ... 1.0000e-10
Integration weight cutoff        WCut        ... 1.0000e-14
Angular grids for H and He will be reduced by one unit
Partially contracted basis set               ... on
Rotationally invariant grid construction     ... off

Total number of grid points                  ...   214066
Total number of batches                      ...     3362
Average number of points per batch           ...       63
Average number of grid points per atom       ...     6296
UseSFitting                                  ... on

Time for X-Grid setup             =    9.571 sec

--------------
SCF ITERATIONS
--------------
ITER       Energy         Delta-E        Max-DP      RMS-DP      [F,P]     Damp
  0   -919.8056817151   0.000000000000280.04241607  2.27324004  0.1463205 0.7000
  1   -919.9707498048  -0.165068089740324.69090784  2.60168075  0.0798999 0.7000
                               ***Turning on DIIS***
  2   -920.0520712591  -0.081321454328667.21508129  5.42060244  0.0386284 0.0000
  3   -920.1698641014  -0.117792842244454.74310833  3.70979971  0.0415383 0.0000
  4   -920.1958725950  -0.026008493613114.89448749  0.97076910  0.0074853 0.0000
                      *** Initiating the SOSCF procedure ***
                           *** Shutting down DIIS ***
                      *** Re-Reading the Fockian *** 
                      *** Removing any level shift *** 
ITER      Energy       Delta-E        Grad      Rot      Max-DP    RMS-DP
  5   -920.19688528  -0.0010126831  0.000661  0.000661 85.016364  0.838294
  6   -920.19700747  -0.0001221932  0.000390  0.001263 159.334592  1.313343
  7   -920.19701732  -0.0000098499  0.000474  0.001359  9.308129  0.096021
  8   -920.19703190  -0.0000145783  0.000138  0.000509 68.741541  0.548638
  9   -920.19702716   0.0000047367  0.000128  0.000186 26.580223  0.212721
 10   -920.19703078  -0.0000036156  0.000074  0.000307 11.005258  0.114080
 11   -920.19702933   0.0000014493  0.000173  0.000264  5.906155  0.046968
 12   -920.19702916   0.0000001676  0.000040  0.000087  4.566898  0.036936
 13   -920.19702880   0.0000003629  0.000030  0.000041  1.058024  0.011377
                 **** Energy Check signals convergence ****
              ***Rediagonalizing the Fockian in SOSCF/NRSCF***

               *****************************************************
               *                     SUCCESS                       *
               *           SCF CONVERGED AFTER  14 CYCLES          *
               *****************************************************


------------------------------------------------------------------------------
                          SCF STABILITY ANALYSIS                              
------------------------------------------------------------------------------


---------------
TD-DFT XC SETUP
---------------

DFT calculation                         ... on
Name of the grid file                   ... loss_eight_seven_spectra.grid.tmp
Exchange functional (SCF)               ... B88
Exchange functional (TD-DFT)            ... B88
   X-Alpha parameter    XAlpha (SCF)    ...  0.666667
   X-Alpha parameter    XAlpha (TD-DFT) ...  0.666667
   Becke's b parameter  XBeta (SCF)     ...  0.004200
   Becke's b parameter  XBeta (TD-DFT)  ...  0.004200
Correlation functional (SCF)            ... LYP
Correlation functional (TD-DFT)         ... LYP
 LDA part of GGA corr.  LDAOpt (SCF)    ... VWN-5
 LDA part of GGA corr.  LDAOpt (TD-DFT) ... VWN-5
Hybrid DFT                              ... on
   Exchange mixing (SCF)                ...  0.200
   Exchange mixing (TD-DFT)             ...  0.200
   GGA exch. scaling(SCF)               ...  0.720
   GGA exch. scaling (TD-DFT)           ...  0.720
   GGA corr. scaling (SCF)              ...  0.810
   GGA corr. scaling (TD-DFT)           ...  0.810

Electron density on the grid   ... found on disk
Building xc-kernel on the grid ... done
                    *** TD-DFT CALCULATION INITIALIZED ***

                       ****Iteration    0****

   Memory handling for direct AO based CIS:
   Memory per vector needed      ...    10 MB
   Memory needed                 ...    61 MB
   Memory available              ...  1024 MB
   Number of vectors per batch   ...    99
   Number of batches             ...     1
   Time for densities:     0.059
   Time for XC-Integration:    42.439
   Time for K (COSX):   362.458
   Time for Sigma-Completion:     0.072
   Lowest Energy          :     0.057963068927
   Maximum Energy change  :     0.099602502514 (vector 2)
   Maximum residual norm  :     0.000481281407

                       ****Iteration    1****
   Time for densities:     0.026
   Time for XC-Integration:    25.817
   Time for K (COSX):   347.866
   Time for Sigma-Completion:     0.031
   Lowest Energy          :     0.057482504125
   Maximum Energy change  :     0.006740365822 (vector 2)
   Maximum residual norm  :     0.002621497019

                       ****Iteration    2****
   Time for densities:     0.022
   Time for XC-Integration:    28.868
   Time for K (COSX):   351.091
   Time for Sigma-Completion:     0.028
   Lowest Energy          :     0.057479958903
   Maximum Energy change  :     0.015423897049 (vector 2)
   Maximum residual norm  :     0.000297528207

                       ****Iteration    3****
   Time for densities:     0.030
   Time for XC-Integration:    28.348
   Time for K (COSX):   352.838
   Time for Sigma-Completion:     0.038
   Lowest Energy          :     0.057479876192
   Maximum Energy change  :     0.001066913671 (vector 2)
   Maximum residual norm  :     0.000007517556

      *** CONVERGENCE OF RESIDUAL NORM REACHED ***

----------------------------- 
SCF STABILITY ANALYSIS RESULT 
----------------------------- 

RHF/RKS->UHF/UKS - triplet - external

   Root    Eigenvalue (au) 
     0       0.057480 
     1       0.063774 
     2       0.076371 

Stability Analysis indicates a stable HF/KS wave function.


Total time for performing the stability analysis:  1541.721sec

Old exchange energy                            =    -25.633657775 Eh
New exchange energy                            =    -25.633622603 Eh
Exchange energy change after final integration =      0.000035172 Eh
Total energy after final integration           =   -920.196993598 Eh
Final COS-X integration done in                =   103.585 sec

----------------
TOTAL SCF ENERGY
----------------

Total Energy       :         -920.19699360 Eh          -25039.83320 eV

Components:
Nuclear Repulsion  :         1797.86383491 Eh           48922.36211 eV
Electronic Energy  :        -2718.06082850 Eh          -73962.19531 eV
One Electron Energy:        -4814.66498111 Eh         -131013.69474 eV
Two Electron Energy:         2096.60415260 Eh           57051.49943 eV
Max COSX asymmetry :            0.00021391 Eh               0.00582 eV

Virial components:
Potential Energy   :        -1837.03630275 Eh          -49988.29915 eV
Kinetic Energy     :          916.83930916 Eh           24948.46596 eV
Virial Ratio       :            2.00366224


DFT components:
N(Alpha)           :       77.000014913977 electrons
N(Beta)            :       77.000014913977 electrons
N(Total)           :      154.000029827953 electrons
E(X)               :     -101.869549710984 Eh       
E(C)               :       -6.194789019897 Eh       
E(XC)              :     -108.064338730881 Eh       
DFET-embed. en.    :        0.000000000000 Eh       

---------------
SCF CONVERGENCE
---------------

  Last Energy change         ...    2.7965e-08  Tolerance :   1.0000e-06
  Last MAX-Density change    ...    3.4106e-13  Tolerance :   1.0000e-05
  Last RMS-Density change    ...    2.5964e-15  Tolerance :   1.0000e-06
  Last Orbital Gradient      ...    4.8172e-06  Tolerance :   5.0000e-05
  Last Orbital Rotation      ...    2.3550e-05  Tolerance :   5.0000e-05

             **** THE GBW FILE WAS UPDATED (loss_eight_seven_spectra.gbw) ****
             **** DENSITY loss_eight_seven_spectra.scfp WAS UPDATED ****
             **** ENERGY FILE WAS UPDATED (loss_eight_seven_spectra.en.tmp) ****
             **** THE GBW FILE WAS UPDATED (loss_eight_seven_spectra.gbw) ****
             **** DENSITY loss_eight_seven_spectra.scfp WAS UPDATED ****
----------------
ORBITAL ENERGIES
----------------

  NO   OCC          E(Eh)            E(eV) 
   0   2.0000     -10.215030      -277.9651 
   1   2.0000     -10.215009      -277.9645 
   2   2.0000     -10.202079      -277.6127 
   3   2.0000     -10.201679      -277.6018 
   4   2.0000     -10.196771      -277.4683 
   5   2.0000     -10.196764      -277.4680 
   6   2.0000     -10.194136      -277.3965 
   7   2.0000     -10.194071      -277.3948 
   8   2.0000     -10.194060      -277.3945 
   9   2.0000     -10.193730      -277.3855 
  10   2.0000     -10.193144      -277.3696 
  11   2.0000     -10.193104      -277.3685 
  12   2.0000     -10.186544      -277.1899 
  13   2.0000     -10.186542      -277.1899 
  14   2.0000     -10.185739      -277.1680 
  15   2.0000     -10.185737      -277.1680 
  16   2.0000     -10.184559      -277.1359 
  17   2.0000     -10.184378      -277.1310 
  18   2.0000     -10.184366      -277.1307 
  19   2.0000     -10.183901      -277.1180 
  20   2.0000     -10.183653      -277.1113 
  21   2.0000     -10.183641      -277.1109 
  22   2.0000     -10.181842      -277.0620 
  23   2.0000     -10.179885      -277.0088 
  24   2.0000      -0.919042       -25.0084 
  25   2.0000      -0.883747       -24.0480 
  26   2.0000      -0.881839       -23.9961 
  27   2.0000      -0.836361       -22.7585 
  28   2.0000      -0.834920       -22.7193 
  29   2.0000      -0.817025       -22.2324 
  30   2.0000      -0.788714       -21.4620 
  31   2.0000      -0.772006       -21.0073 
  32   2.0000      -0.756217       -20.5777 
  33   2.0000      -0.749268       -20.3886 
  34   2.0000      -0.723453       -19.6862 
  35   2.0000      -0.723218       -19.6798 
  36   2.0000      -0.647282       -17.6134 
  37   2.0000      -0.646376       -17.5888 
  38   2.0000      -0.642674       -17.4880 
  39   2.0000      -0.634606       -17.2685 
  40   2.0000      -0.631962       -17.1966 
  41   2.0000      -0.574631       -15.6365 
  42   2.0000      -0.558228       -15.1901 
  43   2.0000      -0.548796       -14.9335 
  44   2.0000      -0.543448       -14.7880 
  45   2.0000      -0.536128       -14.5888 
  46   2.0000      -0.525160       -14.2903 
  47   2.0000      -0.487445       -13.2641 
  48   2.0000      -0.483550       -13.1581 
  49   2.0000      -0.471605       -12.8330 
  50   2.0000      -0.466894       -12.7048 
  51   2.0000      -0.460446       -12.5294 
  52   2.0000      -0.448390       -12.2013 
  53   2.0000      -0.438636       -11.9359 
  54   2.0000      -0.436097       -11.8668 
  55   2.0000      -0.431124       -11.7315 
  56   2.0000      -0.421345       -11.4654 
  57   2.0000      -0.421051       -11.4574 
  58   2.0000      -0.410205       -11.1622 
  59   2.0000      -0.398474       -10.8430 
  60   2.0000      -0.395861       -10.7719 
  61   2.0000      -0.387630       -10.5479 
  62   2.0000      -0.385554       -10.4915 
  63   2.0000      -0.375741       -10.2244 
  64   2.0000      -0.371504       -10.1091 
  65   2.0000      -0.344449        -9.3729 
  66   2.0000      -0.342386        -9.3168 
  67   2.0000      -0.336869        -9.1667 
  68   2.0000      -0.334604        -9.1050 
  69   2.0000      -0.327289        -8.9060 
  70   2.0000      -0.283578        -7.7166 
  71   2.0000      -0.279199        -7.5974 
  72   2.0000      -0.273522        -7.4429 
  73   2.0000      -0.263523        -7.1708 
  74   2.0000      -0.261688        -7.1209 
  75   2.0000      -0.216793        -5.8992 
  76   2.0000      -0.214717        -5.8427 
  77   0.0000      -0.134564        -3.6617 
  78   0.0000      -0.081546        -2.2190 
  79   0.0000      -0.070678        -1.9232 
  80   0.0000      -0.063935        -1.7398 
  81   0.0000      -0.031856        -0.8669 
  82   0.0000      -0.026552        -0.7225 
  83   0.0000      -0.014189        -0.3861 
  84   0.0000       0.001507         0.0410 
  85   0.0000       0.005616         0.1528 
  86   0.0000       0.009110         0.2479 
  87   0.0000       0.012421         0.3380 
  88   0.0000       0.013109         0.3567 
  89   0.0000       0.022529         0.6130 
  90   0.0000       0.027621         0.7516 
  91   0.0000       0.031132         0.8471 
  92   0.0000       0.035644         0.9699 
  93   0.0000       0.039242         1.0678 
  94   0.0000       0.045450         1.2368 
  95   0.0000       0.046227         1.2579 
  96   0.0000       0.051493         1.4012 
  97   0.0000       0.051779         1.4090 
  98   0.0000       0.060331         1.6417 
  99   0.0000       0.063900         1.7388 
 100   0.0000       0.067749         1.8435 
 101   0.0000       0.070015         1.9052 
 102   0.0000       0.075714         2.0603 
 103   0.0000       0.075721         2.0605 
 104   0.0000       0.083630         2.2757 
 105   0.0000       0.089261         2.4289 
 106   0.0000       0.089449         2.4340 
 107   0.0000       0.095938         2.6106 
 108   0.0000       0.096986         2.6391 
 109   0.0000       0.100373         2.7313 
 110   0.0000       0.100775         2.7422 
 111   0.0000       0.106610         2.9010 
 112   0.0000       0.111658         3.0384 
 113   0.0000       0.116486         3.1697 
 114   0.0000       0.116871         3.1802 
 115   0.0000       0.122271         3.3272 
 116   0.0000       0.124374         3.3844 
 117   0.0000       0.138417         3.7665 
 118   0.0000       0.139444         3.7945 
 119   0.0000       0.141410         3.8480 
 120   0.0000       0.142824         3.8864 
 121   0.0000       0.144184         3.9234 
 122   0.0000       0.145386         3.9562 
 123   0.0000       0.146554         3.9879 
 124   0.0000       0.159777         4.3478 
 125   0.0000       0.161888         4.4052 
 126   0.0000       0.165456         4.5023 
 127   0.0000       0.166853         4.5403 
 128   0.0000       0.170369         4.6360 
 129   0.0000       0.171420         4.6646 
 130   0.0000       0.177423         4.8279 
 131   0.0000       0.181440         4.9372 
 132   0.0000       0.181865         4.9488 
 133   0.0000       0.182737         4.9725 
 134   0.0000       0.183637         4.9970 
 135   0.0000       0.188733         5.1357 
 136   0.0000       0.192993         5.2516 
 137   0.0000       0.193480         5.2649 
 138   0.0000       0.194115         5.2821 
 139   0.0000       0.196555         5.3485 
 140   0.0000       0.197938         5.3862 
 141   0.0000       0.199854         5.4383 
 142   0.0000       0.207532         5.6472 
 143   0.0000       0.208283         5.6677 
 144   0.0000       0.211065         5.7434 
 145   0.0000       0.214260         5.8303 
 146   0.0000       0.216795         5.8993 
 147   0.0000       0.220597         6.0028 
 148   0.0000       0.220813         6.0086 
 149   0.0000       0.226541         6.1645 
 150   0.0000       0.229416         6.2427 
 151   0.0000       0.233845         6.3633 
 152   0.0000       0.234703         6.3866 
 153   0.0000       0.236519         6.4360 
 154   0.0000       0.241475         6.5709 
 155   0.0000       0.244003         6.6397 
 156   0.0000       0.254347         6.9211 
 157   0.0000       0.258133         7.0242 
 158   0.0000       0.260768         7.0959 
 159   0.0000       0.261400         7.1131 
 160   0.0000       0.264412         7.1950 
 161   0.0000       0.265867         7.2346 
 162   0.0000       0.266007         7.2384 
 163   0.0000       0.266202         7.2437 
 164   0.0000       0.270739         7.3672 
 165   0.0000       0.273695         7.4476 
 166   0.0000       0.277434         7.5494 
 167   0.0000       0.278998         7.5919 
 168   0.0000       0.279809         7.6140 
 169   0.0000       0.287771         7.8307 
 170   0.0000       0.291711         7.9379 
 171   0.0000       0.296856         8.0779 
 172   0.0000       0.301035         8.1916 
 173   0.0000       0.304041         8.2734 
 174   0.0000       0.305094         8.3020 
 175   0.0000       0.306458         8.3391 
 176   0.0000       0.308251         8.3879 
 177   0.0000       0.310340         8.4448 
 178   0.0000       0.312850         8.5131 
 179   0.0000       0.318248         8.6600 
 180   0.0000       0.323262         8.7964 
 181   0.0000       0.328040         8.9264 
 182   0.0000       0.333312         9.0699 
 183   0.0000       0.340378         9.2622 
 184   0.0000       0.345623         9.4049 
 185   0.0000       0.354214         9.6386 
 186   0.0000       0.359175         9.7736 
 187   0.0000       0.365929         9.9574 
 188   0.0000       0.369699        10.0600 
 189   0.0000       0.384292        10.4571 
 190   0.0000       0.385414        10.4876 
 191   0.0000       0.390984        10.6392 
 192   0.0000       0.393493        10.7075 
 193   0.0000       0.403502        10.9798 
 194   0.0000       0.412197        11.2164 
 195   0.0000       0.414962        11.2917 
 196   0.0000       0.428678        11.6649 
 197   0.0000       0.437093        11.8939 
 198   0.0000       0.440798        11.9947 
 199   0.0000       0.454098        12.3566 
 200   0.0000       0.457559        12.4508 
 201   0.0000       0.461794        12.5660 
 202   0.0000       0.472809        12.8658 
 203   0.0000       0.486202        13.2302 
 204   0.0000       0.492838        13.4108 
 205   0.0000       0.496825        13.5193 
 206   0.0000       0.505396        13.7525 
 207   0.0000       0.513955        13.9854 
 208   0.0000       0.515802        14.0357 
 209   0.0000       0.517215        14.0741 
 210   0.0000       0.517788        14.0897 
 211   0.0000       0.529650        14.4125 
 212   0.0000       0.534210        14.5366 
 213   0.0000       0.535975        14.5846 
 214   0.0000       0.535992        14.5851 
 215   0.0000       0.538855        14.6630 
 216   0.0000       0.543987        14.8026 
 217   0.0000       0.549830        14.9616 
 218   0.0000       0.553244        15.0545 
 219   0.0000       0.556260        15.1366 
 220   0.0000       0.558252        15.1908 
 221   0.0000       0.563271        15.3274 
 222   0.0000       0.568821        15.4784 
 223   0.0000       0.572710        15.5842 
 224   0.0000       0.573628        15.6092 
 225   0.0000       0.580511        15.7965 
 226   0.0000       0.587308        15.9815 
 227   0.0000       0.593919        16.1614 
 228   0.0000       0.601132        16.3576 
 229   0.0000       0.605701        16.4820 
 230   0.0000       0.608716        16.5640 
 231   0.0000       0.614743        16.7280 
 232   0.0000       0.615845        16.7580 
 233   0.0000       0.618319        16.8253 
 234   0.0000       0.622453        16.9378 
 235   0.0000       0.623464        16.9653 
 236   0.0000       0.629978        17.1426 
 237   0.0000       0.631743        17.1906 
 238   0.0000       0.632616        17.2144 
 239   0.0000       0.636999        17.3336 
 240   0.0000       0.638540        17.3755 
 241   0.0000       0.642191        17.4749 
 242   0.0000       0.654330        17.8052 
 243   0.0000       0.655130        17.8270 
 244   0.0000       0.660791        17.9810 
 245   0.0000       0.661727        18.0065 
 246   0.0000       0.670331        18.2406 
 247   0.0000       0.675749        18.3881 
 248   0.0000       0.683236        18.5918 
 249   0.0000       0.683395        18.5961 
 250   0.0000       0.688713        18.7408 
 251   0.0000       0.693990        18.8844 
 252   0.0000       0.704284        19.1645 
 253   0.0000       0.718369        19.5478 
 254   0.0000       0.719293        19.5730 
 255   0.0000       0.724543        19.7158 
 256   0.0000       0.725541        19.7430 
 257   0.0000       0.732647        19.9363 
 258   0.0000       0.739603        20.1256 
 259   0.0000       0.741414        20.1749 
 260   0.0000       0.743156        20.2223 
 261   0.0000       0.747561        20.3422 
 262   0.0000       0.754335        20.5265 
 263   0.0000       0.755984        20.5714 
 264   0.0000       0.763715        20.7817 
 265   0.0000       0.770051        20.9542 
 266   0.0000       0.775920        21.1139 
 267   0.0000       0.779928        21.2229 
 268   0.0000       0.790156        21.5012 
 269   0.0000       0.799191        21.7471 
 270   0.0000       0.827783        22.5251 
 271   0.0000       0.851631        23.1741 
 272   0.0000       0.853225        23.2174 
 273   0.0000       0.866594        23.5812 
 274   0.0000       0.876214        23.8430 
 275   0.0000       0.887086        24.1388 
 276   0.0000       0.892275        24.2800 
 277   0.0000       0.900624        24.5072 
 278   0.0000       0.903763        24.5926 
 279   0.0000       0.907056        24.6823 
 280   0.0000       0.907794        24.7023 
 281   0.0000       0.918282        24.9877 
 282   0.0000       0.926299        25.2059 
 283   0.0000       0.927364        25.2348 
 284   0.0000       0.937378        25.5073 
 285   0.0000       0.937666        25.5152 
 286   0.0000       0.941895        25.6303 
 287   0.0000       0.948470        25.8092 
 288   0.0000       0.954762        25.9804 
 289   0.0000       0.960978        26.1496 
 290   0.0000       0.965996        26.2861 
 291   0.0000       0.968027        26.3414 
 292   0.0000       0.973414        26.4879 
 293   0.0000       0.986068        26.8323 
 294   0.0000       0.990327        26.9482 
 295   0.0000       0.993162        27.0253 
 296   0.0000       0.995739        27.0954 
 297   0.0000       0.995956        27.1013 
 298   0.0000       0.998275        27.1644 
 299   0.0000       0.999522        27.1984 
 300   0.0000       1.000086        27.2137 
 301   0.0000       1.014913        27.6172 
 302   0.0000       1.019072        27.7304 
 303   0.0000       1.021847        27.8059 
 304   0.0000       1.033209        28.1150 
 305   0.0000       1.033782        28.1306 
 306   0.0000       1.043349        28.3910 
 307   0.0000       1.048433        28.5293 
 308   0.0000       1.050973        28.5984 
 309   0.0000       1.059450        28.8291 
 310   0.0000       1.067663        29.0526 
 311   0.0000       1.093133        29.7457 
 312   0.0000       1.095943        29.8221 
 313   0.0000       1.100839        29.9553 
 314   0.0000       1.105769        30.0895 
 315   0.0000       1.115145        30.3446 
 316   0.0000       1.115676        30.3591 
 317   0.0000       1.116478        30.3809 
 318   0.0000       1.142475        31.0883 
 319   0.0000       1.147122        31.2148 
 320   0.0000       1.149507        31.2797 
 321   0.0000       1.156988        31.4832 
 322   0.0000       1.163310        31.6553 
 323   0.0000       1.175000        31.9734 
 324   0.0000       1.187786        32.3213 
 325   0.0000       1.192292        32.4439 
 326   0.0000       1.201822        32.7032 
 327   0.0000       1.208688        32.8901 
 328   0.0000       1.249118        33.9902 
 329   0.0000       1.264325        34.4040 
 330   0.0000       1.278382        34.7866 
 331   0.0000       1.315378        35.7933 
 332   0.0000       1.329333        36.1730 
 333   0.0000       1.335879        36.3511 
 334   0.0000       1.352064        36.7915 
 335   0.0000       1.373296        37.3693 
 336   0.0000       1.398482        38.0546 
 337   0.0000       1.415486        38.5173 
 338   0.0000       1.436382        39.0859 
 339   0.0000       1.446004        39.3478 
 340   0.0000       1.447112        39.3779 
 341   0.0000       1.449423        39.4408 
 342   0.0000       1.465253        39.8716 
 343   0.0000       1.468667        39.9645 
 344   0.0000       1.472455        40.0675 
 345   0.0000       1.475778        40.1580 
 346   0.0000       1.485703        40.4280 
 347   0.0000       1.491416        40.5835 
 348   0.0000       1.493864        40.6501 
 349   0.0000       1.494828        40.6763 
 350   0.0000       1.500126        40.8205 
 351   0.0000       1.503345        40.9081 
 352   0.0000       1.511199        41.1218 
 353   0.0000       1.517821        41.3020 
 354   0.0000       1.534082        41.7445 
 355   0.0000       1.541442        41.9448 
 356   0.0000       1.542065        41.9617 
 357   0.0000       1.552149        42.2361 
 358   0.0000       1.552677        42.2505 
 359   0.0000       1.566197        42.6184 
 360   0.0000       1.578055        42.9411 
 361   0.0000       1.580588        43.0100 
 362   0.0000       1.594878        43.3988 
 363   0.0000       1.596158        43.4337 
 364   0.0000       1.605402        43.6852 
 365   0.0000       1.608830        43.7785 
 366   0.0000       1.609652        43.8009 
 367   0.0000       1.611891        43.8618 
 368   0.0000       1.655073        45.0368 
 369   0.0000       1.668699        45.4076 
 370   0.0000       1.684194        45.8292 
 371   0.0000       1.698764        46.2257 
 372   0.0000       1.713971        46.6395 
 373   0.0000       1.716727        46.7145 
 374   0.0000       1.718532        46.7636 
 375   0.0000       1.724664        46.9305 
 376   0.0000       1.732957        47.1561 
 377   0.0000       1.734817        47.2068 
 378   0.0000       1.736605        47.2554 
 379   0.0000       1.749953        47.6187 
 380   0.0000       1.760829        47.9146 
 381   0.0000       1.763093        47.9762 
 382   0.0000       1.797927        48.9241 
 383   0.0000       1.804756        49.1099 
 384   0.0000       1.805502        49.1302 
 385   0.0000       1.806126        49.1472 
 386   0.0000       1.839406        50.0528 
 387   0.0000       1.855993        50.5041 
 388   0.0000       1.871185        50.9175 
 389   0.0000       1.877079        51.0779 
 390   0.0000       1.887045        51.3491 
 391   0.0000       1.889095        51.4049 
 392   0.0000       1.894336        51.5475 
 393   0.0000       1.897442        51.6320 
 394   0.0000       1.899417        51.6858 
 395   0.0000       1.901519        51.7429 
 396   0.0000       1.911728        52.0208 
 397   0.0000       1.916466        52.1497 
 398   0.0000       1.920751        52.2663 
 399   0.0000       1.921484        52.2862 
 400   0.0000       1.944419        52.9103 
 401   0.0000       1.951119        53.0926 
 402   0.0000       1.953098        53.1465 
 403   0.0000       1.973052        53.6895 
 404   0.0000       1.994254        54.2664 
 405   0.0000       1.998272        54.3757 
 406   0.0000       2.003805        54.5263 
 407   0.0000       2.009993        54.6947 
 408   0.0000       2.014752        54.8242 
 409   0.0000       2.023727        55.0684 
 410   0.0000       2.025070        55.1050 
 411   0.0000       2.028654        55.2025 
 412   0.0000       2.042092        55.5682 
 413   0.0000       2.046392        55.6852 
 414   0.0000       2.056577        55.9623 
 415   0.0000       2.067491        56.2593 
 416   0.0000       2.078913        56.5701 
 417   0.0000       2.088153        56.8215 
 418   0.0000       2.094548        56.9956 
 419   0.0000       2.105378        57.2903 
 420   0.0000       2.108810        57.3836 
 421   0.0000       2.123182        57.7747 
 422   0.0000       2.143419        58.3254 
 423   0.0000       2.145256        58.3754 
 424   0.0000       2.165039        58.9137 
 425   0.0000       2.168576        59.0099 
 426   0.0000       2.186432        59.4958 
 427   0.0000       2.189185        59.5707 
 428   0.0000       2.196428        59.7678 
 429   0.0000       2.239899        60.9507 
 430   0.0000       2.240295        60.9615 
 431   0.0000       2.282808        62.1184 
 432   0.0000       2.310026        62.8590 
 433   0.0000       2.315608        63.0109 
 434   0.0000       2.316552        63.0366 
 435   0.0000       2.322514        63.1988 
 436   0.0000       2.324819        63.2616 
 437   0.0000       2.347780        63.8863 
 438   0.0000       2.355110        64.0858 
 439   0.0000       2.358970        64.1908 
 440   0.0000       2.379854        64.7591 
 441   0.0000       2.384235        64.8783 
 442   0.0000       2.386659        64.9443 
 443   0.0000       2.415927        65.7407 
 444   0.0000       2.434052        66.2339 
 445   0.0000       2.479915        67.4819 
 446   0.0000       2.493526        67.8523 
 447   0.0000       2.500217        68.0344 
 448   0.0000       2.508347        68.2556 
 449   0.0000       2.526910        68.7607 
 450   0.0000       2.530780        68.8660 
 451   0.0000       2.576959        70.1226 
 452   0.0000       2.585403        70.3524 
 453   0.0000       2.590952        70.5034 
 454   0.0000       2.612943        71.1018 
 455   0.0000       2.614694        71.1494 
 456   0.0000       2.617013        71.2125 
 457   0.0000       2.627641        71.5017 
 458   0.0000       2.646976        72.0279 
 459   0.0000       2.647958        72.0546 
 460   0.0000       2.678455        72.8845 
 461   0.0000       2.704579        73.5953 
 462   0.0000       2.709428        73.7273 
 463   0.0000       2.709765        73.7365 
 464   0.0000       2.716370        73.9162 
 465   0.0000       2.720774        74.0360 
 466   0.0000       2.732650        74.3592 
 467   0.0000       2.738193        74.5100 
 468   0.0000       2.741814        74.6086 
 469   0.0000       2.744731        74.6879 
 470   0.0000       2.748777        74.7980 
 471   0.0000       2.764352        75.2218 
 472   0.0000       2.776003        75.5389 
 473   0.0000       2.790740        75.9399 
 474   0.0000       2.799947        76.1904 
 475   0.0000       2.803447        76.2857 
 476   0.0000       2.808719        76.4291 
 477   0.0000       2.810380        76.4743 
 478   0.0000       2.813817        76.5679 
 479   0.0000       2.816467        76.6400 
 480   0.0000       2.822412        76.8017 
 481   0.0000       2.839235        77.2595 
 482   0.0000       2.848772        77.5190 
 483   0.0000       2.851987        77.6065 
 484   0.0000       2.857789        77.7644 
 485   0.0000       2.860251        77.8314 
 486   0.0000       2.863146        77.9102 
 487   0.0000       2.868469        78.0550 
 488   0.0000       2.888262        78.5936 
 489   0.0000       2.894788        78.7712 
 490   0.0000       2.915436        79.3331 
 491   0.0000       2.925249        79.6001 
 492   0.0000       2.925422        79.6048 
 493   0.0000       2.927682        79.6663 
 494   0.0000       2.931538        79.7712 
 495   0.0000       2.986112        81.2562 
 496   0.0000       3.039079        82.6975 
 497   0.0000       3.044459        82.8440 
 498   0.0000       3.061709        83.3133 
 499   0.0000       3.068954        83.5105 
 500   0.0000       3.076384        83.7127 
 501   0.0000       3.084330        83.9289 
 502   0.0000       3.108390        84.5836 
 503   0.0000       3.111406        84.6657 
 504   0.0000       3.140275        85.4512 
 505   0.0000       3.180930        86.5575 
 506   0.0000       3.222966        87.7014 
 507   0.0000       3.223813        87.7244 
 508   0.0000       3.249125        88.4132 
 509   0.0000       3.256772        88.6213 
 510   0.0000       3.269610        88.9706 
 511   0.0000       3.277938        89.1972 
 512   0.0000       3.315732        90.2256 
 513   0.0000       3.330740        90.6341 
 514   0.0000       3.338641        90.8490 
 515   0.0000       3.378933        91.9454 
 516   0.0000       3.411712        92.8374 
 517   0.0000       3.414566        92.9151 
 518   0.0000       3.431860        93.3857 
 519   0.0000       3.445962        93.7694 
 520   0.0000       3.459017        94.1246 
 521   0.0000       3.460939        94.1769 
 522   0.0000       3.486172        94.8636 
 523   0.0000       3.488526        94.9276 
 524   0.0000       3.502914        95.3191 
 525   0.0000       3.509920        95.5098 
 526   0.0000       3.515872        95.6717 
 527   0.0000       3.539449        96.3133 
 528   0.0000       3.554503        96.7229 
 529   0.0000       3.582838        97.4940 
 530   0.0000       3.600497        97.9745 
 531   0.0000       3.604085        98.0722 
 532   0.0000       3.687322       100.3371 
 533   0.0000       3.691553       100.4523 
 534   0.0000       3.734930       101.6326 
 535   0.0000       3.744306       101.8877 
 536   0.0000       3.790838       103.1539 
 537   0.0000       3.843659       104.5913 
 538   0.0000       3.899088       106.0996 
 539   0.0000       3.902050       106.1802 
 540   0.0000       3.994407       108.6933 
 541   0.0000       4.081154       111.0538 
 542   0.0000       4.096797       111.4795 
 543   0.0000       4.105207       111.7084 
 544   0.0000       4.110494       111.8522 
 545   0.0000       4.139742       112.6481 
 546   0.0000       4.167990       113.4168 
 547   0.0000       4.261661       115.9657 
 548   0.0000       4.305386       117.1555 
 549   0.0000       4.448860       121.0596 
 550   0.0000       4.494980       122.3146 
 551   0.0000       4.784989       130.2062 
 552   0.0000       4.832428       131.4971 
 553   0.0000       4.844394       131.8227 
 554   0.0000       4.854742       132.1042 
 555   0.0000       4.858141       132.1967 
 556   0.0000       4.879494       132.7778 
 557   0.0000       5.067076       137.8821 
 558   0.0000      23.328935       634.8126 
 559   0.0000      23.597454       642.1194 
 560   0.0000      23.700057       644.9113 
 561   0.0000      23.797044       647.5505 
 562   0.0000      23.861944       649.3165 
 563   0.0000      23.869570       649.5240 
 564   0.0000      23.898493       650.3111 
 565   0.0000      23.951110       651.7428 
 566   0.0000      23.953315       651.8028 
 567   0.0000      23.984360       652.6476 
 568   0.0000      23.984769       652.6587 
 569   0.0000      24.004834       653.2047 
 570   0.0000      24.005560       653.2245 
 571   0.0000      24.015897       653.5058 
 572   0.0000      24.028227       653.8413 
 573   0.0000      24.033065       653.9729 
 574   0.0000      24.036087       654.0552 
 575   0.0000      24.073309       655.0680 
 576   0.0000      24.186374       658.1447 
 577   0.0000      24.189085       658.2185 
 578   0.0000      24.195744       658.3997 
 579   0.0000      24.198331       658.4701 
 580   0.0000      24.203295       658.6051 
 581   0.0000      24.675767       671.4618 
 582   0.0000       0.000000         0.0000 
 583   0.0000       0.000000         0.0000 
 584   0.0000       0.000000         0.0000 
 585   0.0000       0.000000         0.0000 
 586   0.0000       0.000000         0.0000 
 587   0.0000       0.000000         0.0000 

                    ********************************
                    * MULLIKEN POPULATION ANALYSIS *
                    ********************************

-----------------------
MULLIKEN ATOMIC CHARGES
-----------------------
   0 C :   -0.291962
   1 C :   -0.541737
   2 C :    1.999079
   3 C :   -0.232991
   4 C :   -0.225557
   5 C :    1.837508
   6 C :   -0.640127
   7 C :   -0.441810
   8 C :    1.442089
   9 C :    0.245914
  10 C :   -0.906879
  11 C :    1.591164
  12 C :   -0.131226
  13 C :   -0.638570
  14 C :    1.680904
  15 C :   -0.327114
  16 C :   -0.564934
  17 C :    2.176843
  18 C :   -1.921858
  19 C :   -0.432432
  20 C :   -1.473733
  21 C :   -1.030988
  22 C :   -0.925567
  23 C :   -1.522039
  24 H :    0.124512
  25 H :    0.126026
  26 H :    0.123782
  27 H :    0.123698
  28 H :    0.130976
  29 H :    0.134641
  30 H :    0.134177
  31 H :    0.129012
  32 H :    0.125124
  33 H :    0.124074
Sum of atomic charges:    0.0000000

--------------------------------
MULLIKEN REDUCED ORBITAL CHARGES
--------------------------------
  0 C s       :     3.620263  s :     3.620263
      pz      :     1.000151  p :     2.613000
      px      :     0.721206
      py      :     0.891643
      dz2     :     0.003936  d :     0.058699
      dxz     :     0.006027
      dyz     :     0.008918
      dx2y2   :     0.019931
      dxy     :     0.019888
  1 C s       :     3.896498  s :     3.896498
      pz      :     1.000152  p :     2.586539
      px      :     0.746228
      py      :     0.840160
      dz2     :     0.003937  d :     0.058700
      dxz     :     0.011508
      dyz     :     0.003435
      dx2y2   :     0.023021
      dxy     :     0.016799
  2 C s       :     0.705173  s :     0.705173
      pz      :     0.940055  p :     3.221045
      px      :     0.709101
      py      :     1.571889
      dz2     :     0.004386  d :     0.074703
      dxz     :     0.011646
      dyz     :     0.009881
      dx2y2   :     0.025319
      dxy     :     0.023472
  3 C s       :     3.443738  s :     3.443738
      pz      :     1.001038  p :     2.730518
      px      :     0.819085
      py      :     0.910395
      dz2     :     0.003933  d :     0.058735
      dxz     :     0.011582
      dyz     :     0.003400
      dx2y2   :     0.022818
      dxy     :     0.017003
  4 C s       :     3.529861  s :     3.529861
      pz      :     1.000681  p :     2.636954
      px      :     0.827314
      py      :     0.808960
      dz2     :     0.003940  d :     0.058742
      dxz     :     0.006331
      dyz     :     0.008692
      dx2y2   :     0.019646
      dxy     :     0.020133
  5 C s       :     1.196875  s :     1.196875
      pz      :     0.946161  p :     2.891315
      px      :     1.065021
      py      :     0.880132
      dz2     :     0.004393  d :     0.074301
      dxz     :     0.010238
      dyz     :     0.011076
      dx2y2   :     0.023821
      dxy     :     0.024773
  6 C s       :     3.896583  s :     3.896583
      pz      :     0.992703  p :     2.684719
      px      :     0.817120
      py      :     0.874895
      dz2     :     0.003943  d :     0.058826
      dxz     :     0.004995
      dyz     :     0.010073
      dx2y2   :     0.016927
      dxy     :     0.022888
  7 C s       :     3.419172  s :     3.419172
      pz      :     0.999015  p :     2.964228
      px      :     1.015879
      py      :     0.949335
      dz2     :     0.003955  d :     0.058410
      dxz     :     0.005004
      dyz     :     0.010169
      dx2y2   :     0.016602
      dxy     :     0.022680
  8 C s       :     1.628910  s :     1.628910
      pz      :     0.988229  p :     2.847763
      px      :     1.474994
      py      :     0.384540
      dz2     :     0.004517  d :     0.081238
      dxz     :     0.010729
      dyz     :     0.011685
      dx2y2   :     0.025596
      dxy     :     0.028711
  9 C s       :     3.768916  s :     3.768916
      pz      :     0.968178  p :     1.932616
      px      :     0.515490
      py      :     0.448948
      dz2     :     0.003482  d :     0.052554
      dxz     :     0.008970
      dyz     :     0.010211
      dx2y2   :     0.017947
      dxy     :     0.011944
 10 C s       :     4.776495  s :     4.776495
      pz      :     0.968273  p :     2.077842
      px      :     0.530795
      py      :     0.578774
      dz2     :     0.003473  d :     0.052542
      dxz     :     0.014617
      dyz     :     0.004565
      dx2y2   :     0.012912
      dxy     :     0.016975
 11 C s       :     1.151186  s :     1.151186
[...]
 761   88080.7    113.5      0.01018   0.01881  -0.00042  -0.00037
 762   88105.9    113.5      0.00247   0.00323  -0.00645  -0.14085
 763   88122.3    113.5     -0.54250   0.07086  -0.10423   0.02791
 764   88127.4    113.5      0.47242   0.00693  -0.01006  -0.22185
 765   88202.4    113.4     -0.08184   0.00487  -0.00886  -0.03393
 766   88205.3    113.4      0.17317  -0.13881   0.25859  -0.00124
 767   88230.8    113.3      0.03237   0.00093  -0.00042  -0.07704
 768   88323.0    113.2     -0.31105   0.08965   0.01782  -0.00077
 769   88340.1    113.2      0.53870  -0.00370  -0.00209  -0.02550
 770   88361.7    113.2     -0.19114   0.02263   0.21471  -0.00015
 771   88395.8    113.1     -0.12501  -0.09114   0.06500  -0.00349
 772   88410.9    113.1     -0.14914   0.00284  -0.00199  -0.15786
 773   88435.0    113.1      0.01498  -0.02593  -0.05633  -0.00014
 774   88488.4    113.0      0.03896   0.00064   0.00070   0.03539
 775   88500.1    113.0      0.08600   0.18498   0.00833   0.00066
 776   88565.4    112.9     -0.03484   0.00311  -0.00080   0.18462
 777   88599.7    112.9      0.07614  -0.32051  -0.15811   0.00797
 778   88606.4    112.9     -0.08081   0.00702  -0.00038   0.38256
 779   88619.9    112.8      0.12192  -0.22727   0.33787   0.00220
 780   88654.8    112.8     -0.01331   0.00274  -0.00415  -0.10643
 781   88699.3    112.7      0.75592  -0.02399  -0.01435  -0.16233
 782   88702.0    112.7     -0.59231  -0.13923  -0.13664   0.02411
 783   88745.0    112.7     -0.07871  -0.03025   0.17508   0.00441
 784   88776.7    112.6      0.78158   0.13243  -0.24130  -0.00175
 785   88795.5    112.6     -0.82356   0.00391  -0.00534  -0.01884
 786   88877.8    112.5     -0.19044  -0.00764  -0.00417  -0.01312
 787   88897.5    112.5      0.58534  -0.17815  -0.06486   0.00128
 788   88906.9    112.5     -0.36587  -0.00633  -0.00180  -0.00840
 789   88978.7    112.4      0.03195  -0.00097  -0.00105   0.29223
 790   88999.6    112.4      0.03329  -0.12565   0.15862  -0.00183
 791   89002.8    112.4      0.71628   0.00713  -0.01123   0.12258
 792   89010.8    112.3     -0.64065  -0.15826   0.20103   0.00859
 793   89089.2    112.2     -0.01909  -0.15945  -0.19853  -0.00116
 794   89105.4    112.2     -0.02402  -0.13725  -0.04742  -0.00009
 795   89124.9    112.2     -0.00307   0.00180   0.00116   0.02658
 796   89139.3    112.2      0.00642   0.07815  -0.07906   0.00120
 797   89156.9    112.2     -0.02267   0.03094   0.01664  -0.00078
 798   89179.5    112.1     -0.21968  -0.15125  -0.08894  -0.00276
 799   89227.4    112.1      0.04201   0.00088   0.00164  -0.22745
 800   89261.9    112.0      0.02523   0.04939   0.01196  -0.00006
 801   89320.1    112.0      0.02029  -0.00306  -0.18413  -0.00024
 802   89349.0    111.9     -0.03050  -0.05450   0.00822   0.00080
 803   89390.6    111.9     -0.09093   0.12299   0.09297  -0.00053
 804   89417.8    111.8     -0.10667   0.08549  -0.00011  -0.00055
 805   89455.3    111.8      0.09583  -0.22900   0.02782  -0.00072
 806   89469.7    111.8      0.04448  -0.11548   0.26493   0.00043
 807   89507.0    111.7      0.10136  -0.00003   0.00004   0.18822
 808   89532.7    111.7      0.08712  -0.02552   0.06084   0.00215
 809   89551.5    111.7     -0.03255  -0.02569   0.09817  -0.00048
 810   89582.7    111.6     -0.11911   0.08614  -0.15655   0.00169
 811   89610.0    111.6      0.04897   0.02798  -0.01109   0.00078
 812   89624.0    111.6      0.03999  -0.00048   0.00059  -0.02584
 813   89720.7    111.5      0.04101  -0.06957  -0.02743  -0.00033
 814   89783.9    111.4      0.08132   0.05761   0.00279   0.00071
 815   89798.6    111.4      0.02919  -0.00003   0.00037   0.02730
 816   89861.7    111.3     -0.18104  -0.05991  -0.05593   0.00080
 817   89865.8    111.3     -0.10760   0.03468   0.02729  -0.00256
 818   89871.0    111.3      0.28426   0.00122   0.00149   0.07715
 819   89899.8    111.2     -0.09840   0.00019  -0.00030  -0.18419
 820   89924.3    111.2      0.02912   0.00001  -0.00070   0.07001
 821   89938.0    111.2     -0.12951   0.03148  -0.04570  -0.00332
 822   89998.1    111.1      0.14266   0.00009   0.00015  -0.32933
 823   90012.8    111.1      0.02706   0.02605  -0.01046   0.00474
 824   90035.8    111.1     -0.00104  -0.00003  -0.00022   0.02631
 825   90203.4    110.9     -0.00940   0.00001   0.00006  -0.08641
 826   90205.2    110.9      0.01032   0.01161   0.00168  -0.00363
 827   90222.0    110.8      0.00181   0.00052   0.00039  -0.03998
 828   90340.5    110.7      0.65342   0.38180   0.22847  -0.00266
 829   90355.9    110.7     -0.36055   0.01136   0.00787   0.08164
 830   90357.7    110.7     -0.18064   0.13446   0.06669   0.00184
 831   90449.7    110.6      0.02585   0.01455  -0.03784  -0.00037
 832   90486.1    110.5     -0.02264  -0.00078  -0.00057  -0.09605
 833   90544.8    110.4      0.11238  -0.04630   0.07695  -0.00037
 834   90547.8    110.4     -0.13113  -0.00136   0.00115  -0.03291
 835   90610.1    110.4     -0.01236  -0.00092   0.01570  -0.00071
 836   90662.5    110.3     -0.08390   0.10542  -0.18141   0.00005
 837   90672.8    110.3     -0.05340   0.00005  -0.00251   0.03012
 838   90707.2    110.2      0.10784   0.00072  -0.00241  -0.00600
 839   90721.0    110.2     -0.05186   0.02114  -0.06135   0.00166
 840   90785.8    110.1      0.41039  -0.17342  -0.10122  -0.01516
 841   90806.9    110.1     -0.50385  -0.00461  -0.00213   0.63415
 842   90856.5    110.1     -0.00735  -0.07380  -0.03269  -0.00083
 843   90886.8    110.0     -0.00350   0.00010  -0.00018  -0.00169
 844   90927.6    110.0      0.02282  -0.00553  -0.00934  -0.00081
 845   90933.7    110.0      0.05044  -0.00037  -0.00018   0.09165
 846   90977.7    109.9     -1.80618  -0.02803  -0.01904  -0.04041
 847   90979.8    109.9      1.82061  -0.01039  -0.00653   0.12790
 848   91054.2    109.8     -0.01290  -0.00021   0.00045  -0.05155
 849   91074.1    109.8      0.07247  -0.12207  -0.05794  -0.00141
 850   91096.1    109.8      0.30546   0.00778   0.00182  -0.00809
 851   91104.9    109.8     -0.33263   0.15543   0.06391   0.00151
 852   91131.5    109.7     -0.51731  -0.00483  -0.00660   0.15962
 853   91139.4    109.7      0.49878   0.07324   0.10608   0.00766
 854   91187.6    109.7     -0.01469   0.00037   0.00078  -0.03241
 855   91232.1    109.6     -0.00166  -0.00030  -0.00027   0.04810
 856   91260.6    109.6      0.04454   0.00062  -0.00043   0.08733
 857   91270.7    109.6     -0.10045  -0.03547   0.04619  -0.00129
 858   91291.6    109.5      0.03890   0.00056  -0.00173  -0.16757
 859   91348.9    109.5      0.00380  -0.00009  -0.00063  -0.04327
 860   91442.7    109.4      0.00154   0.02142   0.01332  -0.00061
 861   91459.5    109.3      1.26999   0.01210  -0.01985  -0.02534
 862   91462.0    109.3     -1.31010   0.12272  -0.20350   0.00251
 863   91494.5    109.3     -0.01466   0.01985  -0.06856   0.00097
 864   91539.6    109.2     -0.00697  -0.08335  -0.03203  -0.00019
 865   91560.5    109.2     -0.00692   0.00016  -0.00143  -0.22812
 866   91700.2    109.1     -0.18390  -0.01081   0.09442  -0.00244
 867   91711.5    109.0      0.22907   0.00719   0.00207  -0.02983
 868   91729.5    109.0      0.08628  -0.17320  -0.13651  -0.00455
 869   91738.7    109.0      0.06848   0.00390  -0.00758   0.19158
 870   91740.9    109.0      0.07284   0.14526  -0.16580  -0.02128
 871   91742.4    109.0     -0.35983  -0.00585   0.00839  -0.20143
 872   91766.4    109.0      0.05051   0.00245  -0.00339   0.22427
 873   91851.8    108.9     -0.59202   0.06697   0.00604  -0.00808
 874   91852.6    108.9      0.63152  -0.01639  -0.00198  -0.03969
 875   91868.7    108.9      0.05316   0.02314   0.04904  -0.00169
 876   92013.1    108.7      0.01116  -0.00219   0.00524   0.00323
 877   92026.7    108.7     -0.61846   0.00414  -0.00444  -0.10020
 878   92036.4    108.7      0.38330   0.06816  -0.02192   0.00363
 879   92054.9    108.6      0.33864  -0.05000   0.18405  -0.00127
 880   92075.4    108.6      0.03187   0.00027  -0.00056   0.00906
 881   92121.1    108.6      0.13570  -0.16195   0.24296   0.00125
 882   92152.4    108.5      0.01896   0.00135  -0.00145   0.04868
 883   92158.4    108.5     -0.25024  -0.00333   0.00335  -0.19304
 884   92199.4    108.5     -0.25914  -0.09126   0.03104   0.00463
 885   92253.5    108.4     -0.37460  -0.06628   0.17061   0.00504
 886   92267.2    108.4      0.56257  -0.00170   0.00424  -0.14053
 887   92273.8    108.4     -0.03826  -0.01368   0.02124  -0.00614
 888   92302.5    108.3     -0.15955   0.00086  -0.00199   0.00236
 889   92354.3    108.3     -0.00938   0.11301  -0.04833   0.00055
 890   92366.4    108.3      0.04050  -0.00196   0.00081   0.02304
 891   92411.4    108.2      0.07247  -0.05405  -0.01879  -0.00107
 892   92428.9    108.2     -0.11780   0.00022   0.00079  -0.11415
 893   92486.3    108.1      0.05361  -0.00129   0.00006  -0.09532
 894   92532.2    108.1      0.06497   0.06263   0.02814  -0.00080
 895   92591.9    108.0     -0.05646   0.04077  -0.06410  -0.00014
 896   92651.0    107.9     -0.02630   0.06044   0.02995   0.00136
 897   92684.0    107.9      0.12650   0.00173   0.00081  -0.03178
 898   92695.2    107.9     -0.07390   0.00039  -0.00082   0.13587
 899   92708.1    107.9      0.06325  -0.07333   0.01242   0.00105
 900   92755.3    107.8     -0.03234  -0.16774  -0.06179  -0.00073
 901   92761.4    107.8      0.12200   0.00009  -0.00050  -0.05943
 902   92772.3    107.8     -0.13491  -0.07278  -0.03487   0.00155
 903   92823.2    107.7     -0.16336  -0.11742  -0.04700   0.00079
 904   92831.7    107.7      0.00600  -0.00005  -0.00008   0.00799
 905   92853.7    107.7      0.09265  -0.03248  -0.10227   0.00162
 906   92862.3    107.7     -0.02523  -0.04153   0.03729   0.00038
 907   92902.9    107.6     -0.77487   0.00339  -0.00049  -0.11875
 908   92911.4    107.6      0.51141   0.04056   0.01865   0.00682
 909   92915.7    107.6      0.19552   0.00450   0.00252   0.03062
 910   92945.6    107.6      0.07839   0.11544   0.10073   0.00058
 911   92967.3    107.6      0.19993   0.00233  -0.00049   0.06098
 912   93021.9    107.5      0.15950   0.00074  -0.00001   0.09383
 913   93053.0    107.5      0.03244  -0.01944   0.02840  -0.00066
 914   93089.4    107.4      0.09330   0.00094  -0.00099   0.00364
 915   93112.9    107.4     -0.09955   0.02763   0.07397  -0.00052
 916   93117.2    107.4     -0.01724   0.00073  -0.00143  -0.00642
 917   93169.1    107.3      0.00629  -0.09807   0.10596   0.00013
 918   93186.3    107.3     -4.00831   0.02347  -0.03908  -0.16935
 919   93191.5    107.3      3.48642  -0.15740   0.25626  -0.02122
 920   93209.8    107.3      0.10497  -0.22429   0.40851  -0.00184
 921   93237.5    107.3     -1.27300   0.13229  -0.22388  -0.00471
 922   93242.3    107.2      1.65142  -0.00839   0.01357  -0.08573
 923   93256.2    107.2     -0.12029  -0.00387   0.00618  -0.00497
 924   93287.1    107.2     -3.68232   0.01215  -0.02537   0.01704
 925   93289.7    107.2      3.35925   0.06188  -0.12477  -0.00339
 926   93348.8    107.1     -0.26738   0.04802  -0.11429   0.00253
 927   93357.7    107.1      0.25890   0.00015   0.00351   0.05805
 928   93402.4    107.1      0.01917   0.14152   0.02374  -0.00037
 929   93410.7    107.1      0.11307  -0.00177  -0.00278  -0.05029
 930   93442.1    107.0      0.01395   0.00168   0.00097  -0.02197
 931   93464.4    107.0      0.05731  -0.00019   0.00047   0.08833
 932   93503.8    106.9      0.00368  -0.00069  -0.00041   0.04077
 933   93516.7    106.9     -0.14186   0.36149   0.23694  -0.00517
 934   93529.7    106.9     -0.27627   0.07115   0.06522  -0.00166
 935   93534.2    106.9      1.08579   0.01697   0.01423   0.07176
 936   93554.4    106.9      0.18603   0.07764  -0.05256  -0.00152
 937   93559.1    106.9     -0.82097   0.01127  -0.00003   0.06148
 938   93586.7    106.9      0.14260  -0.20447   0.29261  -0.00006
 939   93599.5    106.8     -0.12807   0.00263  -0.00254   0.07177
 940   93664.0    106.8      0.06232   0.00168  -0.00251  -0.03790
 941   93697.6    106.7      0.10464   0.00107  -0.00136   0.01348
 942   93724.0    106.7     -0.00174  -0.02594   0.06721  -0.00067
 943   93731.2    106.7     -0.03954  -0.00218   0.02097  -0.00057
 944   93782.4    106.6     -0.21820  -0.00117  -0.00036  -0.12167
 945   93796.7    106.6      0.07807   0.00096  -0.00055  -0.14781
 946   93890.9    106.5      4.75911   0.00777  -0.00240  -0.34270
 947   93894.7    106.5     -4.70398  -0.06251   0.02718  -0.03671
 948   93911.0    106.5     -0.09962   0.00002   0.00096  -0.15611
 949   93942.7    106.4     -0.07731  -0.00136   0.00004  -0.08550
 950   93993.3    106.4      0.13807   0.00802   0.11864   0.00154
 951   94004.4    106.4     -0.12449  -0.00037   0.00165   0.11120
 952   94067.8    106.3      0.05883   0.00036   0.00062   0.14942
 953   94089.9    106.3     -0.00698   0.00036  -0.00032  -0.04133
 954   94112.2    106.3     -0.21798   0.00703   0.00138   0.10015
 955   94113.2    106.3     -0.08955   0.20971   0.20413   0.00026
 956   94127.9    106.2      0.31504  -0.23350  -0.06067   0.00298
 957   94205.2    106.2      0.00141  -0.05714  -0.04139   0.00102
 958   94224.8    106.1      0.02909  -0.14007   0.05237   0.00017
 959   94237.3    106.1     -0.01564  -0.00236   0.00081  -0.00376
 960   94272.9    106.1     -0.26222  -0.11678  -0.08992   0.00286
 961   94295.7    106.0      0.13369  -0.00120  -0.00034  -0.20520
 962   94309.2    106.0      0.09401  -0.00052  -0.00088   0.00223
 963   94355.7    106.0     -0.06900  -0.00043   0.00002  -0.14619
 964   94371.9    106.0     -0.00374  -0.00121  -0.00137  -0.03127
 965   94425.0    105.9     -0.00438   0.04080   0.06145  -0.00000
 966   94472.1    105.9      0.18421  -0.00093  -0.00097   0.15496
 967   94506.4    105.8     -0.28954   0.12699   0.02144   0.00219
 968   94562.9    105.7     -0.08691  -0.08812  -0.22009   0.00081
 969   94581.2    105.7      0.03339   0.08984   0.03662   0.00098
 970   94610.0    105.7      0.07392   0.00115  -0.00138  -0.18463
 971   94677.3    105.6     -0.12202  -0.12753  -0.13067   0.00134
 972   94705.3    105.6      0.00860  -0.14387  -0.02499   0.00094
 973   94804.4    105.5      0.00624   0.04520  -0.04979  -0.00089
 974   94840.2    105.4     -0.36888   0.02686  -0.11328   0.00463
 975   94841.9    105.4      0.45459  -0.00134   0.00474   0.05030
 976   94881.7    105.4     -0.11816  -0.00168   0.00142   0.24974
 977   94895.2    105.4      0.07029   0.09004   0.05259   0.00243
 978   94936.7    105.3      0.14453   0.00116  -0.00133   0.31089
 979   94962.8    105.3     -0.10134   0.12270  -0.20874  -0.00227
 980   94979.0    105.3     -0.01260   0.00033  -0.00002  -0.05127
 981   95001.1    105.3      0.01078  -0.01884   0.10355   0.00006
 982   95027.9    105.2     -0.06490  -0.14967  -0.07127   0.00066
 983   95051.5    105.2      0.02541   0.20187  -0.11462   0.00041
 984   95072.2    105.2      0.03430  -0.13323  -0.03205  -0.00174
 985   95110.5    105.1      0.00430  -0.01276  -0.00674  -0.00001
 986   95137.6    105.1      0.01129   0.00080   0.00111  -0.31560
 987   95177.0    105.1     -0.08823   0.00092   0.00165  -0.35101
 988   95185.1    105.1      0.25945   0.09756   0.03989   0.00720
 989   95199.6    105.0     -0.04324   0.10691   0.00346  -0.00083
 990   95286.4    104.9     -0.01086   0.05426  -0.20028  -0.00011
 991   95304.4    104.9      0.02585  -0.01286  -0.07294  -0.00039
 992   95362.1    104.9     -0.08650   0.10012  -0.21029  -0.00677
 993   95365.8    104.9      0.06106  -0.00475   0.00977  -0.14134
 994   95422.5    104.8     -0.15070   0.27120   0.12112   0.00126
 995   95426.6    104.8      0.04168  -0.05766  -0.00155   0.00027
 996   95464.9    104.8     -0.00806   0.06496   0.13454  -0.00015
 997   95482.5    104.7      0.30411   0.00425  -0.00321   0.01526
 998   95487.2    104.7     -0.37930  -0.09782   0.06884   0.00903
 999   95508.7    104.7     -0.00957  -0.00295   0.00239  -0.33373
 1000   95559.5    104.6      0.12007  -0.17929  -0.08232  -0.00256

Total run time:    50723.601 sec

           *** ORCA-CIS/TD-DFT FINISHED WITHOUT ERROR ***

Maximum memory used throughout the entire CIS-calculation: 1000.2 MB

-----------------------
CIS/TD-DFT TOTAL ENERGY
-----------------------

    E(SCF)  =   -920.196993598 Eh
    DE(CIS) =      0.053915514 Eh (Root  1)
    ----------------------------- ---------
    E(tot)  =   -920.143078085 Eh



-------------------------------------------------------------------------------
                          DFT DISPERSION CORRECTION                            
                                                                               
                                 DFTD4 V2.5                                    
-------------------------------------------------------------------------------
The B3LYP functional is recognized
Active option DFTDOPT                   ...         5   

Starting D4
-------------------------   ----------------
Dispersion correction           -0.102366215
-------------------------   ----------------


-------------------------   --------------------
FINAL SINGLE POINT ENERGY      -920.245444299244
-------------------------   --------------------


                            ***************************************
                            *     ORCA property calculations      *
                            ***************************************

                                    ---------------------
                                    Active property flags
                                    ---------------------
   (+) Dipole Moment


------------------------------------------------------------------------------
                       ORCA ELECTRIC PROPERTIES CALCULATION
------------------------------------------------------------------------------

Dipole Moment Calculation                       ... on
Quadrupole Moment Calculation                   ... off
Polarizability Calculation                      ... off
GBWName                                         ... loss_eight_seven_spectra.gbw
Electron density                                ... loss_eight_seven_spectra.scfp
The origin for moment calculation is the CENTER OF MASS  = ( 0.029455, -0.050060 -0.000384)

-------------
DIPOLE MOMENT
-------------
                                X             Y             Z
Electronic contribution:     -3.83617       6.45605      -0.00036
Nuclear contribution   :      4.28792      -7.21595       0.00041
                        -----------------------------------------
Total Dipole Moment    :      0.45176      -0.75990       0.00004
                        -----------------------------------------
Magnitude (a.u.)       :      0.88405
Magnitude (Debye)      :      2.24707



--------------------
Rotational spectrum 
--------------------
 
Rotational constants in cm-1:     0.011665     0.011070     0.005680 
Rotational constants in MHz :   349.700509   331.877899   170.278091 

 Dipole components along the rotational axes: 
x,y,z [a.u.] :     0.000163    -0.884046    -0.000000 
x,y,z [Debye]:     0.000414    -2.247067    -0.000000 

 

Timings for individual modules:

Sum of individual times         ...    53330.160 sec (= 888.836 min)
GTO integral calculation        ...        1.277 sec (=   0.021 min)   0.0 %
SCF iterations                  ...     2604.791 sec (=  43.413 min)   4.9 %
CIS module                      ...    50724.092 sec (= 845.402 min)  95.1 %
                             ****ORCA TERMINATED NORMALLY****
TOTAL RUN TIME: 0 days 14 hours 48 minutes 52 seconds 872 msec
