
                                 *****************
                                 * O   R   C   A *
                                 *****************

                                            #,                                       
                                            ###                                      
                                            ####                                     
                                            #####                                    
                                            ######                                   
                                           ########,                                 
                                     ,,################,,,,,                         
                               ,,#################################,,                 
                          ,,##########################################,,             
                       ,#########################################, ''#####,          
                    ,#############################################,,   '####,        
                  ,##################################################,,,,####,       
                ,###########''''           ''''###############################       
              ,#####''   ,,,,##########,,,,          '''####'''          '####       
            ,##' ,,,,###########################,,,                        '##       
           ' ,,###''''                  '''############,,,                           
         ,,##''                                '''############,,,,        ,,,,,,###''
      ,#''                                            '''#######################'''  
     '                                                          ''''####''''         
             ,#######,   #######,   ,#######,      ##                                
            ,#'     '#,  ##    ##  ,#'     '#,    #''#        ######   ,####,        
            ##       ##  ##   ,#'  ##            #'  '#       #        #'  '#        
            ##       ##  #######   ##           ,######,      #####,   #    #        
            '#,     ,#'  ##    ##  '#,     ,#' ,#      #,         ##   #,  ,#        
             '#######'   ##     ##  '#######'  #'      '#     #####' # '####'        



                  #######################################################
                  #                        -***-                        #
                  #          Department of theory and spectroscopy      #
                  #    Directorship and core code : Frank Neese         #
                  #        Max Planck Institute fuer Kohlenforschung    #
                  #                Kaiser Wilhelm Platz 1               #
                  #                 D-45470 Muelheim/Ruhr               #
                  #                      Germany                        #
                  #                                                     #
                  #                  All rights reserved                #
                  #                        -***-                        #
                  #######################################################



                         Program Version 5.0.4 -  RELEASE  -

 With contributions from (in alphabetic order):
   Daniel Aravena         : Magnetic Suceptibility
   Michael Atanasov       : Ab Initio Ligand Field Theory (pilot matlab implementation)
   Alexander A. Auer      : GIAO ZORA, VPT2 properties, NMR spectrum
   Ute Becker             : Parallelization
   Giovanni Bistoni       : ED, misc. LED, open-shell LED, HFLD
   Martin Brehm           : Molecular dynamics
   Dmytro Bykov           : SCF Hessian
   Vijay G. Chilkuri      : MRCI spin determinant printing, contributions to CSF-ICE
   Dipayan Datta          : RHF DLPNO-CCSD density
   Achintya Kumar Dutta   : EOM-CC, STEOM-CC
   Dmitry Ganyushin       : Spin-Orbit,Spin-Spin,Magnetic field MRCI
   Miquel Garcia          : C-PCM and meta-GGA Hessian, CC/C-PCM, Gaussian charge scheme
   Yang Guo               : DLPNO-NEVPT2, F12-NEVPT2, CIM, IAO-localization
   Andreas Hansen         : Spin unrestricted coupled pair/coupled cluster methods
   Benjamin Helmich-Paris : MC-RPA, TRAH-SCF, COSX integrals
   Lee Huntington         : MR-EOM, pCC
   Robert Izsak           : Overlap fitted RIJCOSX, COSX-SCS-MP3, EOM
   Marcus Kettner         : VPT2
   Christian Kollmar      : KDIIS, OOCD, Brueckner-CCSD(T), CCSD density, CASPT2, CASPT2-K
   Simone Kossmann        : Meta GGA functionals, TD-DFT gradient, OOMP2, MP2 Hessian
   Martin Krupicka        : Initial AUTO-CI
   Lucas Lang             : DCDCAS
   Marvin Lechner         : AUTO-CI (C++ implementation), FIC-MRCC
   Dagmar Lenk            : GEPOL surface, SMD
   Dimitrios Liakos       : Extrapolation schemes; Compound Job, initial MDCI parallelization
   Dimitrios Manganas     : Further ROCIS development; embedding schemes
   Dimitrios Pantazis     : SARC Basis sets
   Anastasios Papadopoulos: AUTO-CI, single reference methods and gradients
   Taras Petrenko         : DFT Hessian,TD-DFT gradient, ASA, ECA, R-Raman, ABS, FL, XAS/XES, NRVS
   Peter Pinski           : DLPNO-MP2, DLPNO-MP2 Gradient
   Christoph Reimann      : Effective Core Potentials
   Marius Retegan         : Local ZFS, SOC
   Christoph Riplinger    : Optimizer, TS searches, QM/MM, DLPNO-CCSD(T), (RO)-DLPNO pert. Triples
   Tobias Risthaus        : Range-separated hybrids, TD-DFT gradient, RPA, STAB
   Michael Roemelt        : Original ROCIS implementation
   Masaaki Saitow         : Open-shell DLPNO-CCSD energy and density
   Barbara Sandhoefer     : DKH picture change effects
   Avijit Sen             : IP-ROCIS
   Kantharuban Sivalingam : CASSCF convergence, NEVPT2, FIC-MRCI
   Bernardo de Souza      : ESD, SOC TD-DFT
   Georgi Stoychev        : AutoAux, RI-MP2 NMR, DLPNO-MP2 response
   Willem Van den Heuvel  : Paramagnetic NMR
   Boris Wezisla          : Elementary symmetry handling
   Frank Wennmohs         : Technical directorship


 We gratefully acknowledge several colleagues who have allowed us to
 interface, adapt or use parts of their codes:
   Stefan Grimme, W. Hujo, H. Kruse, P. Pracht,  : VdW corrections, initial TS optimization,
                  C. Bannwarth, S. Ehlert          DFT functionals, gCP, sTDA/sTD-DF
   Ed Valeev, F. Pavosevic, A. Kumar             : LibInt (2-el integral package), F12 methods
   Garnet Chan, S. Sharma, J. Yang, R. Olivares  : DMRG
   Ulf Ekstrom                                   : XCFun DFT Library
   Mihaly Kallay                                 : mrcc  (arbitrary order and MRCC methods)
   Jiri Pittner, Ondrej Demel                    : Mk-CCSD
   Frank Weinhold                                : gennbo (NPA and NBO analysis)
   Christopher J. Cramer and Donald G. Truhlar   : smd solvation model
   Lars Goerigk                                  : TD-DFT with DH, B97 family of functionals
   V. Asgeirsson, H. Jonsson                     : NEB implementation
   FAccTs GmbH                                   : IRC, NEB, NEB-TS, DLPNO-Multilevel, CI-OPT
                                                   MM, QMMM, 2- and 3-layer-ONIOM, Crystal-QMMM,
                                                   LR-CPCM, SF, NACMEs, symmetry and pop. for TD-DFT,
                                                   nearIR, NL-DFT gradient (VV10), updates on ESD,
                                                   ML-optimized integration grids
   S Lehtola, MJT Oliveira, MAL Marques          : LibXC Library
   Liviu Ungur et al                             : ANISO software


 Your calculation uses the libint2 library for the computation of 2-el integrals
 For citations please refer to: http://libint.valeyev.net

 Your ORCA version has been built with support for libXC version: 5.1.0
 For citations please refer to: https://tddft.org/programs/libxc/

 This ORCA versions uses:
   CBLAS   interface :  Fast vector & matrix operations
   LAPACKE interface :  Fast linear algebra routines
   Shared memory     :  Shared parallel matrices


XCFun DFT library Copyright 2009-2010 Ulf Ekstrom and contributors.
See http://admol.org/xcfun for more information.
This is free software; see the source code for copying conditions.
There is ABSOLUTELY NO WARRANTY; not even for MERCHANTABILITY or FITNESS FOR A PARTICULAR PURPOSE.
For details see the documentation.
Scientific users of this library should cite U. Ekstrom, L. Visscher, R. Bast, A. J. Thorvaldsen and K. Ruud;
J.Chem.Theor.Comp. 2010, DOI: 10.1021/ct100117s
XCFun Version 0.99 

================================================================================

----- Orbital basis set information -----
Your calculation utilizes the basis: def2-TZVP
   F. Weigend and R. Ahlrichs, Phys. Chem. Chem. Phys. 7, 3297 (2005).

----- AuxJ basis set information -----
Your calculation utilizes the auxiliary basis: def2/J
   F. Weigend, Phys. Chem. Chem. Phys. 8, 1057 (2006).

================================================================================
                                        WARNINGS
                       Please study these warnings very carefully!
================================================================================


WARNING: Geometry Optimization
  ===> : Switching off AutoStart
         For restart on a previous wavefunction, please use MOREAD

WARNING: Minnesota functionals are quite sensitive to the integration grid.
         see SE Wheeler, KN Houk, JCTC 2010, 6, 395,
             N Mardirossian, M Head-Gordon, JCTC 2016, 12, 4303.
         DEFGRID3 seems to be a minimum grid for reliable results with these functionals!
  ===> : Please increase the integration grid!


INFO   : the flag for use of the SHARK integral package has been found!

================================================================================
                                       INPUT FILE
================================================================================
NAME = eight_ten.inp
|  1> !M062X def2-tzvp PAL4 TIGHTOPT FREQ
|  2> 
|  3> %freq
|  4> Temp 298.15,10,20,50,100,6000,8000,10000
|  5> end
|  6> 
|  7> %geom
|  8> maxiter 5000
|  9> end
| 10> 
| 11> 
| 12> 
| 13> * xyz 0 1
| 14>   C   2.45791983499341     -2.80268931379768     -0.00000793519644
| 15>   C   1.28608761308438     -3.49706883370209     -0.00003643606214
| 16>   C   0.03470547919465     -2.82650100714450     -0.00011895547508
| 17>   C   -1.19909611030651     -3.52926406052669     -0.00014738304165
| 18>   C   -2.38727532547159     -2.86387815648029     -0.00022974228995
| 19>   C   -2.43307513493588     -1.44447575303296     -0.00027036473986
| 20>   C   -3.65942351028343     -0.73056692575933     -0.00034869983218
| 21>   C   -3.68143184744779      0.63183680863156     -0.00038756598292
| 22>   C   -2.47654311552349      1.38171086633990     -0.00035715694906
| 23>   C   -2.47435650264592      2.81046534061019     -0.00039831731937
| 24>   C   -1.28561443050281      3.43802142880253     -0.00036151343355
| 25>   C   -0.02057223287027      2.83388218261706     -0.00029010794623
| 26>   C   1.21086686736911      3.53893902602452     -0.00025402239824
| 27>   C   2.39489324957599      2.86551829309080     -0.00018393811888
| 28>   C   2.43517090494280      1.44582754720977     -0.00014049013964
| 29>   C   3.65975900430544      0.72697243056351     -0.00006992784603
| 30>   C   3.67546036802878     -0.63516446298208     -0.00002698908555
| 31>   C   2.46811813995863     -1.38295180399054     -0.00005240219282
| 32>   C   1.24061543792698     -0.69496199420878     -0.00012711748511
| 33>   C   1.22474219035332      0.72698621586077     -0.00017741356338
| 34>   C   -0.01566516709535      1.42103164152461     -0.00024506128700
| 35>   C   -1.24356348643455      0.69923344199718     -0.00028346088976
| 36>   C   -1.22400277498297     -0.72338676000015     -0.00023734960533
| 37>   C   0.01693487392421     -1.41913103104816     -0.00016297130775
| 38>   H   3.40501735040542     -3.32906588787472      0.00005627444163
| 39>   H   1.29296308352502     -4.58060438188898      0.00000142672494
| 40>   H   -1.17896310310274     -4.61257131284734     -0.00011513591155
| 41>   H   -3.32129405982821     -3.41317602901623     -0.00025227227744
| 42>   H   -4.58586789409211     -1.29266910376159     -0.00037146429946
| 43>   H   -4.62408845924854      1.16575491725399     -0.00044556872067
| 44>   H   -3.41518424261775      3.34878172120577     -0.00045725814046
| 45>   H   1.18854626437870      4.62103847897618     -0.00028959104089
| 46>   H   4.58800492413600      1.28586263822177     -0.00004835142171
| 47>   H   4.61660270482137     -1.17213723898180      0.00002811587814
| 48>   **                         ****END OF INPUT****
================================================================================

                       *****************************
                       * Geometry Optimization Run *
                       *****************************

Geometry optimization settings:
Update method            Update   .... BFGS
Choice of coordinates    CoordSys .... Z-matrix Internals
Initial Hessian          InHess   .... Almoef's Model

Convergence Tolerances:
Energy Change            TolE     ....  1.0000e-06 Eh
Max. Gradient            TolMAXG  ....  1.0000e-04 Eh/bohr
RMS Gradient             TolRMSG  ....  3.0000e-05 Eh/bohr
Max. Displacement        TolMAXD  ....  1.0000e-03 bohr
RMS Displacement         TolRMSD  ....  6.0000e-04 bohr
Strict Convergence                ....  False
------------------------------------------------------------------------------
                        ORCA OPTIMIZATION COORDINATE SETUP
------------------------------------------------------------------------------

The optimization will be done in new redundant internal coordinates
Making redundant internal coordinates   ...  (new redundants) done
Evaluating the initial hessian          ...  (Almloef) done
Evaluating the coordinates              ...  done
Calculating the B-matrix                .... done
Calculating the G-matrix                .... done
Diagonalizing the G-matrix              .... done
The first mode is                       ....  124
The number of degrees of freedom        ....   96

    -----------------------------------------------------------------
                    Redundant Internal Coordinates


    -----------------------------------------------------------------
         Definition                    Initial Value    Approx d2E/dq
    -----------------------------------------------------------------
      1. B(C   1,C   0)                  1.3621         0.692196   
      2. B(C   2,C   1)                  1.4197         0.560163   
      3. B(C   3,C   2)                  1.4199         0.559784   
      4. B(C   4,C   3)                  1.3618         0.692986   
      5. B(C   5,C   4)                  1.4201         0.559307   
      6. B(C   6,C   5)                  1.4190         0.561631   
      7. B(C   7,C   6)                  1.3626         0.691008   
      8. B(C   8,C   7)                  1.4192         0.561288   
      9. B(C   9,C   8)                  1.4288         0.541883   
     10. B(C  10,C   9)                  1.3442         0.739220   
     11. B(C  11,C  10)                  1.4019         0.598077   
     12. B(C  12,C  11)                  1.4190         0.561667   
     13. B(C  13,C  12)                  1.3621         0.692140   
     14. B(C  14,C  13)                  1.4203         0.559059   
     15. B(C  15,C  14)                  1.4200         0.559620   
     16. B(C  16,C  15)                  1.3622         0.691907   
     17. B(C  17,C  16)                  1.4202         0.559263   
     18. B(C  17,C   0)                  1.4198         0.560062   
     19. B(C  18,C  17)                  1.4072         0.586630   
     20. B(C  19,C  18)                  1.4220         0.555426   
     21. B(C  19,C  14)                  1.4078         0.585271   
     22. B(C  20,C  19)                  1.4214         0.556776   
     23. B(C  20,C  11)                  1.4129         0.574471   
     24. B(C  21,C  20)                  1.4243         0.550758   
     25. B(C  21,C   8)                  1.4093         0.582117   
     26. B(C  22,C  21)                  1.4228         0.553963   
     27. B(C  22,C   5)                  1.4078         0.585305   
     28. B(C  23,C  22)                  1.4227         0.554138   
     29. B(C  23,C  18)                  1.4219         0.555694   
     30. B(C  23,C   2)                  1.4075         0.585932   
     31. B(H  24,C   0)                  1.0835         0.368744   
     32. B(H  25,C   1)                  1.0836         0.368724   
     33. B(H  26,C   3)                  1.0835         0.368810   
     34. B(H  27,C   4)                  1.0836         0.368710   
     35. B(H  28,C   6)                  1.0836         0.368624   
     36. B(H  29,C   7)                  1.0834         0.368991   
     37. B(H  30,C   9)                  1.0839         0.368197   
     38. B(H  31,C  12)                  1.0823         0.370391   
     39. B(H  32,C  15)                  1.0835         0.368786   
     40. B(H  33,C  16)                  1.0836         0.368729   
     41. A(C   1,C   0,C  17)          121.0608         0.434729   
     42. A(C   1,C   0,H  24)          120.2864         0.361028   
     43. A(C  17,C   0,H  24)          118.6528         0.348293   
     44. A(C   2,C   1,H  25)          118.5487         0.348301   
     45. A(C   0,C   1,C   2)          121.1656         0.434743   
     46. A(C   0,C   1,H  25)          120.2857         0.361025   
     47. A(C   1,C   2,C  23)          118.9086         0.421943   
     48. A(C   3,C   2,C  23)          118.9421         0.421892   
     49. A(C   1,C   2,C   3)          122.1494         0.418521   
     50. A(C   4,C   3,H  26)          120.3137         0.361109   
     51. A(C   2,C   3,H  26)          118.6008         0.348275   
     52. A(C   2,C   3,C   4)          121.0855         0.434779   
     53. A(C   3,C   4,C   5)          121.0971         0.434712   
     54. A(C   3,C   4,H  27)          120.2911         0.361092   
     55. A(C   5,C   4,H  27)          118.6117         0.348209   
     56. A(C   6,C   5,C  22)          118.9827         0.422060   
     57. A(C   4,C   5,C   6)          122.0536         0.418653   
     58. A(C   4,C   5,C  22)          118.9637         0.421748   
     59. A(C   5,C   6,H  28)          118.5480         0.348439   
     60. A(C   5,C   6,C   7)          121.1310         0.434813   
     61. A(C   7,C   6,H  28)          120.3210         0.360902   
     62. A(C   6,C   7,C   8)          120.9710         0.434765   
     63. A(C   6,C   7,H  29)          120.4526         0.360963   
     64. A(C   8,C   7,H  29)          118.5764         0.348461   
     65. A(C   7,C   8,C   9)          121.9842         0.416254   
     66. A(C   9,C   8,C  21)          118.8777         0.418964   
     67. A(C   7,C   8,C  21)          119.1382         0.421603   
     68. A(C   8,C   9,H  30)          119.6893         0.346278   
     69. A(C   8,C   9,C  10)          117.9180         0.437299   
     70. A(C  10,C   9,H  30)          122.3927         0.365012   
     71. A(C   9,C  10,C  11)          126.6422         0.445165   
     72. A(C  12,C  11,C  20)          119.5942         0.420659   
     73. A(C  10,C  11,C  20)          115.7265         0.425408   
     74. A(C  10,C  11,C  12)          124.6793         0.423696   
     75. A(C  11,C  12,H  31)          118.6115         0.348723   
     76. A(C  11,C  12,C  13)          120.5776         0.434946   
     77. A(C  13,C  12,H  31)          120.8109         0.361297   
     78. A(C  12,C  13,C  14)          121.2544         0.434582   
     79. A(C  13,C  14,C  15)          122.0388         0.418352   
     80. A(C  15,C  14,C  19)          118.8814         0.421785   
     81. A(C  13,C  14,C  19)          119.0799         0.421710   
     82. A(C  14,C  15,C  16)          121.0741         0.434634   
     83. A(C  16,C  15,H  32)          120.3914         0.361009   
     84. A(C  14,C  15,H  32)          118.5345         0.348254   
     85. A(C  17,C  16,H  33)          118.5202         0.348208   
     86. A(C  15,C  16,C  17)          121.1123         0.434585   
     87. A(C  15,C  16,H  33)          120.3675         0.361000   
     88. A(C  16,C  17,C  18)          118.9576         0.421912   
     89. A(C   0,C  17,C  18)          118.8582         0.422020   
     90. A(C   0,C  17,C  16)          122.1842         0.418438   
     91. A(C  17,C  18,C  19)          119.9093         0.421394   
     92. A(C  19,C  18,C  23)          119.9773         0.417343   
     93. A(C  17,C  18,C  23)          120.1134         0.421430   
     94. A(C  18,C  19,C  20)          119.8679         0.417487   
     95. A(C  14,C  19,C  20)          120.0667         0.421402   
     96. A(C  14,C  19,C  18)          120.0654         0.421219   
     97. A(C  11,C  20,C  19)          119.4273         0.420004   
     98. A(C  19,C  20,C  21)          120.3233         0.416860   
     99. A(C  11,C  20,C  21)          120.2494         0.419190   
    100. A(C  20,C  21,C  22)          119.6606         0.416485   
    101. A(C   8,C  21,C  22)          119.7531         0.420615   
    102. A(C   8,C  21,C  20)          120.5863         0.420180   
    103. A(C  21,C  22,C  23)          120.0654         0.416938   
    104. A(C   5,C  22,C  23)          119.9106         0.421049   
    105. A(C   5,C  22,C  21)          120.0240         0.421025   
    106. A(C  18,C  23,C  22)          120.1055         0.417170   
    107. A(C   2,C  23,C  22)          120.0010         0.421129   
    108. A(C   2,C  23,C  18)          119.8934         0.421340   
    109. D(C   2,C   1,C   0,H  24)    179.9999         0.033683   
    110. D(H  25,C   1,C   0,C  17)   -179.9998         0.033683   
    111. D(C   2,C   1,C   0,C  17)      0.0003         0.033683   
    112. D(H  25,C   1,C   0,H  24)     -0.0002         0.033683   
    113. D(C   3,C   2,C   1,C   0)   -179.9999         0.021494   
    114. D(C   3,C   2,C   1,H  25)      0.0003         0.021494   
    115. D(C  23,C   2,C   1,H  25)    179.9997         0.021494   
    116. D(C  23,C   2,C   1,C   0)     -0.0004         0.021494   
    117. D(H  26,C   3,C   2,C  23)    179.9999         0.021464   
    118. D(H  26,C   3,C   2,C   1)     -0.0006         0.021464   
    119. D(C   4,C   3,C   2,C   1)   -179.9999         0.021464   
    120. D(C   4,C   3,C   2,C  23)      0.0007         0.021464   
    121. D(H  27,C   4,C   3,C   2)    179.9999         0.033766   
    122. D(H  27,C   4,C   3,H  26)      0.0007         0.033766   
    123. D(C   5,C   4,C   3,H  26)    179.9999         0.033766   
    124. D(C   5,C   4,C   3,C   2)     -0.0009         0.033766   
    125. D(C  22,C   5,C   4,H  27)    179.9998         0.021426   
    126. D(C   6,C   5,C   4,H  27)     -0.0005         0.021426   
    127. D(C  22,C   5,C   4,C   3)      0.0006         0.021426   
    128. D(C   6,C   5,C   4,C   3)   -179.9996         0.021426   
    129. D(H  28,C   6,C   5,C  22)   -179.9999         0.021611   
    130. D(C   7,C   6,C   5,C  22)     -0.0002         0.021611   
    131. D(H  28,C   6,C   5,C   4)      0.0004         0.021611   
    132. D(C   7,C   6,C   5,C   4)   -180.0000         0.021611   
    133. D(H  29,C   7,C   6,H  28)     -0.0002         0.033558   
    134. D(H  29,C   7,C   6,C   5)   -179.9999         0.033558   
    135. D(C   8,C   7,C   6,H  28)    179.9999         0.033558   
    136. D(C   8,C   7,C   6,C   5)      0.0003         0.033558   
    137. D(C  21,C   8,C   7,C   6)     -0.0001         0.021584   
    138. D(C   9,C   8,C   7,H  29)      0.0001         0.021584   
    139. D(C   9,C   8,C   7,C   6)    179.9999         0.021584   
    140. D(C  21,C   8,C   7,H  29)   -179.9999         0.021584   
    141. D(H  30,C   9,C   8,C  21)    179.9999         0.020068   
    142. D(H  30,C   9,C   8,C   7)     -0.0002         0.020068   
    143. D(C  10,C   9,C   8,C  21)     -0.0001         0.020068   
    144. D(C  10,C   9,C   8,C   7)    179.9998         0.020068   
    145. D(C  11,C  10,C   9,H  30)   -179.9998         0.035175   
    146. D(C  11,C  10,C   9,C   8)      0.0002         0.035175   
    147. D(C  20,C  11,C  10,C   9)     -0.0004         0.022365   
    148. D(C  12,C  11,C  10,C   9)    180.0000         0.022365   
    149. D(H  31,C  12,C  11,C  20)    180.0000         0.021614   
    150. D(H  31,C  12,C  11,C  10)     -0.0004         0.021614   
    151. D(C  13,C  12,C  11,C  20)      0.0004         0.021614   
    152. D(C  13,C  12,C  11,C  10)    180.0000         0.021614   
    153. D(C  14,C  13,C  12,H  31)   -179.9998         0.030501   
    154. D(C  14,C  13,C  12,C  11)     -0.0002         0.030501   
    155. D(C  19,C  14,C  13,C  12)      0.0003         0.019442   
    156. D(C  15,C  14,C  13,C  12)    179.9999         0.019442   
    157. D(H  32,C  15,C  14,C  19)    179.9996         0.021451   
    158. D(H  32,C  15,C  14,C  13)      0.0000         0.021451   
    159. D(C  16,C  15,C  14,C  19)     -0.0005         0.021451   
    160. D(C  16,C  15,C  14,C  13)    179.9999         0.021451   
    161. D(H  33,C  16,C  15,H  32)     -0.0001         0.033652   
    162. D(C  17,C  16,C  15,H  32)    179.9999         0.033652   
    163. D(C  17,C  16,C  15,C  14)      0.0001         0.033652   
    164. D(H  33,C  16,C  15,C  14)   -179.9999         0.033652   
    165. D(C   0,C  17,C  16,H  33)      0.0000         0.021423   
    166. D(C   0,C  17,C  16,C  15)   -180.0000         0.021423   
    167. D(C  18,C  17,C   0,H  24)   -179.9996         0.021486   
    168. D(C  18,C  17,C   0,C   1)     -0.0000         0.021486   
    169. D(C  16,C  17,C   0,H  24)      0.0005         0.021486   
    170. D(C  18,C  17,C  16,C  15)      0.0002         0.021423   
    171. D(C  16,C  17,C   0,C   1)   -179.9999         0.021486   
    172. D(C  18,C  17,C  16,H  33)   -179.9998         0.021423   
    173. D(C  23,C  18,C  17,C  16)    179.9996         0.023669   
    174. D(C  23,C  18,C  17,C   0)     -0.0003         0.023669   
    175. D(C  19,C  18,C  17,C  16)      0.0001         0.023669   
    176. D(C  19,C  18,C  17,C   0)   -179.9998         0.023669   
    177. D(C  20,C  19,C  18,C  23)      0.0009         0.021119   
    178. D(C  20,C  19,C  18,C  17)   -179.9996         0.021119   
    179. D(C  14,C  19,C  18,C  23)    179.9999         0.021119   
    180. D(C  14,C  19,C  18,C  17)     -0.0006         0.021119   
    181. D(C  20,C  19,C  14,C  15)    179.9999         0.023554   
    182. D(C  20,C  19,C  14,C  13)     -0.0006         0.023554   
    183. D(C  18,C  19,C  14,C  15)      0.0008         0.023554   
    184. D(C  18,C  19,C  14,C  13)   -179.9996         0.023554   
    185. D(C  21,C  20,C  19,C  18)     -0.0010         0.021225   
    186. D(C  21,C  20,C  19,C  14)    180.0000         0.021225   
    187. D(C  11,C  20,C  19,C  18)    179.9998         0.021225   
    188. D(C  11,C  20,C  19,C  14)      0.0007         0.021225   
    189. D(C  21,C  20,C  11,C  12)   -179.9999         0.022654   
    190. D(C  21,C  20,C  11,C  10)      0.0005         0.022654   
    191. D(C  19,C  20,C  11,C  12)     -0.0006         0.022654   
    192. D(C  19,C  20,C  11,C  10)    179.9997         0.022654   
    193. D(C  22,C  21,C  20,C  19)      0.0008         0.020753   
    194. D(C  22,C  21,C  20,C  11)   -180.0000         0.020753   
    195. D(C   8,C  21,C  20,C  19)   -179.9997         0.020753   
    196. D(C   8,C  21,C  20,C  11)     -0.0004         0.020753   
    197. D(C  22,C  21,C   8,C   9)    179.9998         0.023289   
    198. D(C  22,C  21,C   8,C   7)     -0.0002         0.023289   
    199. D(C  20,C  21,C   8,C   9)      0.0003         0.023289   
    200. D(C  20,C  21,C   8,C   7)   -179.9997         0.023289   
    201. D(C  23,C  22,C  21,C  20)     -0.0004         0.021004   
    202. D(C  23,C  22,C  21,C   8)    180.0000         0.021004   
    203. D(C   5,C  22,C  21,C  20)    179.9998         0.021004   
    204. D(C   5,C  22,C  21,C   8)      0.0002         0.021004   
    205. D(C  23,C  22,C   5,C   6)   -179.9998         0.023557   
    206. D(C  23,C  22,C   5,C   4)     -0.0001         0.023557   
    207. D(C  21,C  22,C   5,C   6)     -0.0000         0.023557   
    208. D(C  21,C  22,C   5,C   4)    179.9997         0.023557   
    209. D(C  18,C  23,C  22,C  21)      0.0003         0.021017   
    210. D(C   2,C  23,C  22,C  21)   -179.9999         0.021017   
    211. D(C   2,C  23,C  22,C   5)     -0.0002         0.021017   
    212. D(C  22,C  23,C  18,C  19)     -0.0005         0.021140   
    213. D(C  22,C  23,C  18,C  17)    179.9999         0.021140   
    214. D(C   2,C  23,C  18,C  19)    179.9997         0.021140   
    215. D(C   2,C  23,C  18,C  17)      0.0002         0.021140   
    216. D(C  22,C  23,C   2,C   3)     -0.0001         0.023610   
    217. D(C  22,C  23,C   2,C   1)   -179.9996         0.023610   
    218. D(C  18,C  23,C  22,C   5)   -179.9999         0.021017   
    219. D(C  18,C  23,C   2,C   3)    179.9996         0.023610   
    220. D(C  18,C  23,C   2,C   1)      0.0001         0.023610   
    -----------------------------------------------------------------

Number of atoms                         .... 34
Number of degrees of freedom            .... 220

         *************************************************************
         *                GEOMETRY OPTIMIZATION CYCLE   1            *
         *************************************************************
---------------------------------
CARTESIAN COORDINATES (ANGSTROEM)
---------------------------------
  C      2.457920   -2.802689   -0.000008
  C      1.286088   -3.497069   -0.000036
  C      0.034705   -2.826501   -0.000119
  C     -1.199096   -3.529264   -0.000147
  C     -2.387275   -2.863878   -0.000230
  C     -2.433075   -1.444476   -0.000270
  C     -3.659424   -0.730567   -0.000349
  C     -3.681432    0.631837   -0.000388
  C     -2.476543    1.381711   -0.000357
  C     -2.474357    2.810465   -0.000398
  C     -1.285614    3.438021   -0.000362
  C     -0.020572    2.833882   -0.000290
  C      1.210867    3.538939   -0.000254
  C      2.394893    2.865518   -0.000184
  C      2.435171    1.445828   -0.000140
  C      3.659759    0.726972   -0.000070
  C      3.675460   -0.635164   -0.000027
  C      2.468118   -1.382952   -0.000052
  C      1.240615   -0.694962   -0.000127
  C      1.224742    0.726986   -0.000177
  C     -0.015665    1.421032   -0.000245
  C     -1.243563    0.699233   -0.000283
  C     -1.224003   -0.723387   -0.000237
  C      0.016935   -1.419131   -0.000163
  H      3.405017   -3.329066    0.000056
  H      1.292963   -4.580604    0.000001
  H     -1.178963   -4.612571   -0.000115
  H     -3.321294   -3.413176   -0.000252
  H     -4.585868   -1.292669   -0.000371
  H     -4.624088    1.165755   -0.000446
  H     -3.415184    3.348782   -0.000457
  H      1.188546    4.621038   -0.000290
  H      4.588005    1.285863   -0.000048
  H      4.616603   -1.172137    0.000028

----------------------------
CARTESIAN COORDINATES (A.U.)
----------------------------
  NO LB      ZA    FRAG     MASS         X           Y           Z
   0 C     6.0000    0    12.011    4.644795   -5.296315   -0.000015
   1 C     6.0000    0    12.011    2.430353   -6.608502   -0.000069
   2 C     6.0000    0    12.011    0.065584   -5.341313   -0.000225
   3 C     6.0000    0    12.011   -2.265963   -6.669343   -0.000279
   4 C     6.0000    0    12.011   -4.511297   -5.411945   -0.000434
   5 C     6.0000    0    12.011   -4.597846   -2.729664   -0.000511
   6 C     6.0000    0    12.011   -6.915308   -1.380571   -0.000659
   7 C     6.0000    0    12.011   -6.956898    1.193999   -0.000732
   8 C     6.0000    0    12.011   -4.679988    2.611055   -0.000675
   9 C     6.0000    0    12.011   -4.675856    5.311010   -0.000753
  10 C     6.0000    0    12.011   -2.429459    6.496919   -0.000683
  11 C     6.0000    0    12.011   -0.038876    5.355261   -0.000548
  12 C     6.0000    0    12.011    2.288207    6.687626   -0.000480
  13 C     6.0000    0    12.011    4.525692    5.415045   -0.000348
  14 C     6.0000    0    12.011    4.601806    2.732218   -0.000265
  15 C     6.0000    0    12.011    6.915942    1.373779   -0.000132
  16 C     6.0000    0    12.011    6.945614   -1.200287   -0.000051
  17 C     6.0000    0    12.011    4.664067   -2.613400   -0.000099
  18 C     6.0000    0    12.011    2.344423   -1.313288   -0.000240
  19 C     6.0000    0    12.011    2.314427    1.373805   -0.000335
  20 C     6.0000    0    12.011   -0.029603    2.685361   -0.000463
  21 C     6.0000    0    12.011   -2.349994    1.321360   -0.000536
  22 C     6.0000    0    12.011   -2.313030   -1.367003   -0.000449
  23 C     6.0000    0    12.011    0.032002   -2.681769   -0.000308
  24 H     1.0000    0     1.008    6.434550   -6.291023    0.000106
  25 H     1.0000    0     1.008    2.443346   -8.656088    0.000003
  26 H     1.0000    0     1.008   -2.227917   -8.716497   -0.000218
  27 H     1.0000    0     1.008   -6.276336   -6.449968   -0.000477
  28 H     1.0000    0     1.008   -8.666034   -2.442791   -0.000702
  29 H     1.0000    0     1.008   -8.738261    2.202958   -0.000842
  30 H     1.0000    0     1.008   -6.453763    6.328280   -0.000864
  31 H     1.0000    0     1.008    2.246027    8.732497   -0.000547
  32 H     1.0000    0     1.008    8.670073    2.429928   -0.000091
  33 H     1.0000    0     1.008    8.724115   -2.215018    0.000053

--------------------------------
INTERNAL COORDINATES (ANGSTROEM)
--------------------------------
 C      0   0   0     0.000000000000     0.00000000     0.00000000
 C      1   0   0     1.362113679096     0.00000000     0.00000000
 C      2   1   0     1.419724783837   121.16560922     0.00000000
 C      3   2   1     1.419909247897   122.14936829   180.00012514
 C      4   3   2     1.361803310114   121.08549338   180.00014219
 C      5   4   3     1.420141122251   121.09714964     0.00000000
 C      6   5   4     1.419012388076   122.05359964   180.00035250
 C      7   6   5     1.362581485232   121.13095823   180.00004575
 C      8   7   6     1.419178621480   120.97098694     0.00000000
 C      9   8   7     1.428756148094   121.98415257   179.99993018
 C     10   9   8     1.344222585462   117.91798224   179.99982824
 C     11  10   9     1.401897284280   126.64222024     0.00000000
 C     12  11  10     1.418995211879   124.67934702   179.99996824
 C     13  12  11     1.362135809022   120.57756794   179.99997748
 C     14  13  12     1.420261984758   121.25435076     0.00000000
 C     15  14  13     1.419988977707   122.03878309   179.99987718
 C     16  15  14     1.362227386094   121.07411591   179.99989307
 C      1   2   3     1.419774138430   121.06079764     0.00000000
 C     18   1   2     1.407157726568   118.85816447     0.00000000
 C     15  14  13     1.407789236399   119.07985977     0.00000000
 C     12  11  10     1.412859063314   115.72648181     0.00000000
 C      9   8   7     1.409260162609   119.13818147     0.00000000
 C      6   5   4     1.407773173691   118.96366889     0.00000000
 C      3   2   1     1.407482165417   118.90857994     0.00000000
 H      1   2   3     1.083543264277   120.28639352   179.99993510
 H      2   1   3     1.083557362447   120.28567582   179.99985180
 H      4   3   2     1.083494320220   118.60077089     0.00000000
 H      5   4   3     1.083567787178   120.29111832   179.99989480
 H      7   6   5     1.083631881832   118.54804936     0.00000000
 H      8   7   6     1.083360529949   120.45257468   180.00011038
 H     10   9   8     1.083947122969   119.68934415     0.00000000
 H     13  12  11     1.082329634012   118.61148842     0.00000000
 H     16  15  14     1.083512229910   118.53445959     0.00000000
 H     17  16  15     1.083553719621   120.36752368   180.00008314

---------------------------
INTERNAL COORDINATES (A.U.)
---------------------------
 C      0   0   0     0.000000000000     0.00000000     0.00000000
 C      1   0   0     2.574021816758     0.00000000     0.00000000
 C      2   1   0     2.682891026993   121.16560922     0.00000000
 C      3   2   1     2.683239613547   122.14936829   180.00012514
 C      4   3   2     2.573435304383   121.08549338   180.00014219
 C      5   4   3     2.683677792575   121.09714964     0.00000000
 C      6   5   4     2.681544794105   122.05359964   180.00035250
 C      7   6   5     2.574905842241   121.13095823   180.00004575
 C      8   7   6     2.681858929714   120.97098694     0.00000000
 C      9   8   7     2.699957832055   121.98415257   179.99993018
 C     10   9   8     2.540212549554   117.91798224   179.99982824
 C     11  10   9     2.649201935177   126.64222024     0.00000000
 C     12  11  10     2.681512335797   124.67934702   179.99996824
 C     13  12  11     2.574063636258   120.57756794   179.99997748
 C     14  13  12     2.683906189613   121.25435076     0.00000000
 C     15  14  13     2.683390281052   122.03878309   179.99987718
 C     16  15  14     2.574236691845   121.07411591   179.99989307
 C      1   2   3     2.682984293657   121.06079764     0.00000000
 C     18   1   2     2.659142730445   118.85816447     0.00000000
 C     15  14  13     2.660336111077   119.07985977     0.00000000
 C     12  11  10     2.669916695492   115.72648181     0.00000000
 C      9   8   7     2.663115758776   119.13818147     0.00000000
 C      6   5   4     2.660305756958   118.96366889     0.00000000
 C      3   2   1     2.659755831016   118.90857994     0.00000000
 H      1   2   3     2.047600023738   120.28639352   179.99993510
 H      2   1   3     2.047626665418   120.28567582   179.99985180
 H      4   3   2     2.047507532875   118.60077089     0.00000000
 H      5   4   3     2.047646365305   120.29111832   179.99989480
 H      7   6   5     2.047767486649   118.54804936     0.00000000
 H      8   7   6     2.047254705903   120.45257468   180.00011038
 H     10   9   8     2.048363206063   119.68934415     0.00000000
 H     13  12  11     2.045306594911   118.61148842     0.00000000
 H     16  15  14     2.047541377284   118.53445959     0.00000000
 H     17  16  15     2.047619781476   120.36752368   180.00008314

---------------------
BASIS SET INFORMATION
---------------------
There are 2 groups of distinct atoms

 Group   1 Type C   : 11s6p2d1f contracted to 5s3p2d1f pattern {62111/411/11/1}
 Group   2 Type H   : 5s1p contracted to 3s1p pattern {311/1}

Atom   0C    basis set group =>   1
Atom   1C    basis set group =>   1
Atom   2C    basis set group =>   1
Atom   3C    basis set group =>   1
Atom   4C    basis set group =>   1
Atom   5C    basis set group =>   1
Atom   6C    basis set group =>   1
Atom   7C    basis set group =>   1
Atom   8C    basis set group =>   1
Atom   9C    basis set group =>   1
Atom  10C    basis set group =>   1
Atom  11C    basis set group =>   1
Atom  12C    basis set group =>   1
Atom  13C    basis set group =>   1
Atom  14C    basis set group =>   1
Atom  15C    basis set group =>   1
Atom  16C    basis set group =>   1
Atom  17C    basis set group =>   1
Atom  18C    basis set group =>   1
Atom  19C    basis set group =>   1
Atom  20C    basis set group =>   1
Atom  21C    basis set group =>   1
Atom  22C    basis set group =>   1
Atom  23C    basis set group =>   1
Atom  24H    basis set group =>   2
Atom  25H    basis set group =>   2
Atom  26H    basis set group =>   2
Atom  27H    basis set group =>   2
Atom  28H    basis set group =>   2
Atom  29H    basis set group =>   2
Atom  30H    basis set group =>   2
Atom  31H    basis set group =>   2
Atom  32H    basis set group =>   2
Atom  33H    basis set group =>   2
---------------------------------
AUXILIARY/J BASIS SET INFORMATION
---------------------------------
There are 2 groups of distinct atoms

 Group   1 Type C   : 12s5p4d2f1g contracted to 6s4p3d1f1g pattern {711111/2111/211/2/1}
 Group   2 Type H   : 5s2p1d contracted to 3s1p1d pattern {311/2/1}

Atom   0C    basis set group =>   1
Atom   1C    basis set group =>   1
Atom   2C    basis set group =>   1
Atom   3C    basis set group =>   1
Atom   4C    basis set group =>   1
Atom   5C    basis set group =>   1
Atom   6C    basis set group =>   1
Atom   7C    basis set group =>   1
Atom   8C    basis set group =>   1
Atom   9C    basis set group =>   1
Atom  10C    basis set group =>   1
Atom  11C    basis set group =>   1
Atom  12C    basis set group =>   1
Atom  13C    basis set group =>   1
Atom  14C    basis set group =>   1
Atom  15C    basis set group =>   1
Atom  16C    basis set group =>   1
Atom  17C    basis set group =>   1
Atom  18C    basis set group =>   1
Atom  19C    basis set group =>   1
Atom  20C    basis set group =>   1
Atom  21C    basis set group =>   1
Atom  22C    basis set group =>   1
Atom  23C    basis set group =>   1
Atom  24H    basis set group =>   2
Atom  25H    basis set group =>   2
Atom  26H    basis set group =>   2
Atom  27H    basis set group =>   2
Atom  28H    basis set group =>   2
Atom  29H    basis set group =>   2
Atom  30H    basis set group =>   2
Atom  31H    basis set group =>   2
Atom  32H    basis set group =>   2
Atom  33H    basis set group =>   2


           ************************************************************
           *        Program running with 4 parallel MPI-processes     *
           *              working on a common directory               *
           ************************************************************
------------------------------------------------------------------------------
                           ORCA GTO INTEGRAL CALCULATION
                           -- RI-GTO INTEGRALS CHOSEN --
------------------------------------------------------------------------------
------------------------------------------------------------------------------
                   ___                                                        
                  /   \      - P O W E R E D   B Y -                         
                 /     \                                                     
                 |  |  |   _    _      __       _____    __    __             
                 |  |  |  | |  | |    /  \     |  _  \  |  |  /  |          
                  \  \/   | |  | |   /    \    | | | |  |  | /  /          
                 / \  \   | |__| |  /  /\  \   | |_| |  |  |/  /          
                |  |  |   |  __  | /  /__\  \  |    /   |      \           
                |  |  |   | |  | | |   __   |  |    \   |  |\   \          
                \     /   | |  | | |  |  |  |  | |\  \  |  | \   \       
                 \___/    |_|  |_| |__|  |__|  |_| \__\ |__|  \__/        
                                                                              
                      - O R C A' S   B I G   F R I E N D -                    
                                      &                                       
                       - I N T E G R A L  F E E D E R -                       
                                                                              
 v1 FN, 2020, v2 2021                                                         
------------------------------------------------------------------------------


Reading SHARK input file eight_ten.SHARKINP.tmp ... ok
----------------------
SHARK INTEGRAL PACKAGE
----------------------

Number of atoms                             ...     34
Number of basis functions                   ...    804
Number of shells                            ...    304
Maximum angular momentum                    ...      3
Integral batch strategy                     ... SHARK/LIBINT Hybrid
RI-J (if used) integral strategy            ... SPLIT-RIJ (Revised 2003 algorithm where possible)
Printlevel                                  ...      1
Contraction scheme used                     ... SEGMENTED contraction
Coulomb Range Separation                    ... NOT USED
Exchange Range Separation                   ... NOT USED
Finite Nucleus Model                        ... NOT USED
Auxiliary Coulomb fitting basis             ... AVAILABLE
   # of basis functions in Aux-J            ...   1286
   # of shells in Aux-J                     ...    410
   Maximum angular momentum in Aux-J        ...      4
Auxiliary J/K fitting basis                 ... NOT available
Auxiliary Correlation fitting basis         ... NOT available
Auxiliary 'external' fitting basis          ... NOT available
Integral threshold                          ...     2.500000e-11
Primitive cut-off                           ...     2.500000e-12
Primitive pair pre-selection threshold      ...     2.500000e-12

Calculating pre-screening integrals         ... done (  0.1 sec) Dimension = 304
Organizing shell pair data                  ... done (  0.7 sec)
Shell pair information
Total number of shell pairs                 ...     46360
Shell pairs after pre-screening             ...     35743
Total number of primitive shell pairs       ...    146628
Primitive shell pairs kept                  ...     75600
          la=0 lb=0:   8087 shell pairs
          la=1 lb=0:   9820 shell pairs
          la=1 lb=1:   2940 shell pairs
          la=2 lb=0:   5414 shell pairs
          la=2 lb=1:   3292 shell pairs
          la=2 lb=2:    929 shell pairs
          la=3 lb=0:   2542 shell pairs
          la=3 lb=1:   1588 shell pairs
          la=3 lb=2:    894 shell pairs
          la=3 lb=3:    237 shell pairs

Calculating one electron integrals          ... done (  0.4 sec)
Calculating RI/J V-Matrix + Cholesky decomp.... done (  0.2 sec)
Calculating Nuclear repulsion               ... done (  0.0 sec) ENN=   1800.882197439590 Eh

SHARK setup successfully completed in   2.5 seconds

Maximum memory used throughout the entire GTOINT-calculation: 52.5 MB


           ************************************************************
           *        Program running with 4 parallel MPI-processes     *
           *              working on a common directory               *
           ************************************************************
-------------------------------------------------------------------------------
                                 ORCA SCF
-------------------------------------------------------------------------------

------------
SCF SETTINGS
------------
Hamiltonian:
 Density Functional     Method          .... DFT(GTOs)
 Exchange Functional    Exchange        .... M062X
 Correlation Functional Correlation     .... M062X
 Gradients option       PostSCFGGA      .... off
 Hybrid DFT is turned on
   Fraction HF Exchange ScalHFX         ....  0.540000
   Scaling of DF-GGA-X  ScalDFX         ....  0.460000
   Scaling of DF-GGA-C  ScalDFC         ....  1.000000
   Scaling of DF-LDA-C  ScalLDAC        ....  1.000000
   Perturbative correction              ....  0.000000
   Density functional embedding theory  .... OFF
 RI-approximation to the Coulomb term is turned on
   Number of AuxJ basis functions       .... 1286
   RIJ-COSX (HFX calculated with COS-X)).... on


General Settings:
 Integral files         IntName         .... eight_ten
 Hartree-Fock type      HFTyp           .... RHF
 Total Charge           Charge          ....    0
 Multiplicity           Mult            ....    1
 Number of Electrons    NEL             ....  154
 Basis Dimension        Dim             ....  804
 Nuclear Repulsion      ENuc            ....   1800.8821974396 Eh

Convergence Acceleration:
 DIIS                   CNVDIIS         .... on
   Start iteration      DIISMaxIt       ....    12
   Startup error        DIISStart       ....  0.200000
   # of expansion vecs  DIISMaxEq       ....     5
   Bias factor          DIISBfac        ....   1.050
   Max. coefficient     DIISMaxC        ....  10.000
 Trust-Rad. Augm. Hess. CNVTRAH         .... auto
   Auto Start mean grad. ratio tolernc. ....  1.125000
   Auto Start start iteration           ....    20
   Auto Start num. interpolation iter.  ....    10
   Max. Number of Micro iterations      ....    16
   Max. Number of Macro iterations      .... Maxiter - #DIIS iter
   Number of Davidson start vectors     ....     2
   Converg. threshold I  (grad. norm)   ....   1.000e-05
   Converg. threshold II (energy diff.) ....   1.000e-08
   Grad. Scal. Fac. for Micro threshold ....   0.100
   Minimum threshold for Micro iter.    ....   0.010
   NR start threshold (gradient norm)   ....   0.001
   Initial trust radius                 ....   0.400
   Minimum AH scaling param. (alpha)    ....   1.000
   Maximum AH scaling param. (alpha)    .... 1000.000
   Orbital update algorithm             .... Taylor
   White noise on init. David. guess    .... on
   Maximum white noise                  ....   0.010
   Quad. conv. algorithm                .... NR
 SOSCF                  CNVSOSCF        .... on
   Start iteration      SOSCFMaxIt      ....   150
   Startup grad/error   SOSCFStart      ....  0.003300
 Level Shifting         CNVShift        .... on
   Level shift para.    LevelShift      ....    0.2500
   Turn off err/grad.   ShiftErr        ....    0.0010
 Zerner damping         CNVZerner       .... off
 Static damping         CNVDamp         .... on
   Fraction old density DampFac         ....    0.7000
   Max. Damping (<1)    DampMax         ....    0.9800
   Min. Damping (>=0)   DampMin         ....    0.0000
   Turn off err/grad.   DampErr         ....    0.1000
 Fernandez-Rico         CNVRico         .... off

SCF Procedure:
 Maximum # iterations   MaxIter         ....   125
 SCF integral mode      SCFMode         .... Direct
   Integral package                     .... SHARK and LIBINT hybrid scheme
 Reset frequency        DirectResetFreq ....    20
 Integral Threshold     Thresh          ....  2.500e-11 Eh
 Primitive CutOff       TCut            ....  2.500e-12 Eh

Convergence Tolerance:
 Convergence Check Mode ConvCheckMode   .... Total+1el-Energy
 Convergence forced     ConvForced      .... 0
 Energy Change          TolE            ....  1.000e-08 Eh
 1-El. energy change                    ....  1.000e-05 Eh
 Orbital Gradient       TolG            ....  1.000e-05
 Orbital Rotation angle TolX            ....  1.000e-05
 DIIS Error             TolErr          ....  5.000e-07


Diagonalization of the overlap matrix:
Smallest eigenvalue                        ... 6.236e-07
Time for diagonalization                   ...    0.250 sec
Threshold for overlap eigenvalues          ... 1.000e-08
Number of eigenvalues below threshold      ... 0
Time for construction of square roots      ...    0.109 sec
Total time needed                          ...    0.362 sec

Time for model grid setup =    0.608 sec

------------------------------
INITIAL GUESS: MODEL POTENTIAL
------------------------------
Loading Hartree-Fock densities                     ... done
Calculating cut-offs                               ... done
Initializing the effective Hamiltonian             ... done
Setting up the integral package (SHARK)            ... done
Starting the Coulomb interaction                   ... done (   1.3 sec)
Reading the grid                                   ... done
Mapping shells                                     ... done
Starting the XC term evaluation                    ... done (   1.2 sec)
  promolecular density results
     # of electrons  =    153.982537143
     EX              =   -125.795965379
     EC              =     -5.219327826
     EX+EC           =   -131.015293205
Transforming the Hamiltonian                       ... done (   0.1 sec)
Diagonalizing the Hamiltonian                      ... done (   0.1 sec)
Back transforming the eigenvectors                 ... done (   0.0 sec)
Now organizing SCF variables                       ... done
                      ------------------
                      INITIAL GUESS DONE (   3.6 sec)
                      ------------------
-------------------
DFT GRID GENERATION
-------------------

General Integration Accuracy     IntAcc      ... 4.388
Radial Grid Type                 RadialGrid  ... OptM3 with GC (2021)
Angular Grid (max. ang.)         AngularGrid ... 4 (Lebedev-302)
Angular grid pruning method      GridPruning ... 4 (adaptive)
Weight generation scheme         WeightScheme... Becke
Basis function cutoff            BFCut       ... 1.0000e-11
Integration weight cutoff        WCut        ... 1.0000e-14
Angular grids for H and He will be reduced by one unit
Partially contracted basis set               ... off
Rotationally invariant grid construction     ... off

Total number of grid points                  ...   174250
Total number of batches                      ...     2739
Average number of points per batch           ...       63
Average number of grid points per atom       ...     5125
Time for grid setup =    1.654 sec

--------------------
COSX GRID GENERATION
--------------------

GRIDX 1
-------
General Integration Accuracy     IntAcc      ... 3.816
Radial Grid Type                 RadialGrid  ... OptM3 with GC (2021)
Angular Grid (max. ang.)         AngularGrid ... 1 (Lebedev-50)
Angular grid pruning method      GridPruning ... 4 (adaptive)
Weight generation scheme         WeightScheme... Becke
Basis function cutoff            BFCut       ... 1.0000e-11
Integration weight cutoff        WCut        ... 1.0000e-14
Angular grids for H and He will be reduced by one unit
Partially contracted basis set               ... on
Rotationally invariant grid construction     ... off

Total number of grid points                  ...    22167
Total number of batches                      ...      361
Average number of points per batch           ...       61
Average number of grid points per atom       ...      652
UseSFitting                                  ... on

GRIDX 2
-------
General Integration Accuracy     IntAcc      ... 4.020
Radial Grid Type                 RadialGrid  ... OptM3 with GC (2021)
Angular Grid (max. ang.)         AngularGrid ... 2 (Lebedev-110)
Angular grid pruning method      GridPruning ... 4 (adaptive)
Weight generation scheme         WeightScheme... Becke
Basis function cutoff            BFCut       ... 1.0000e-11
Integration weight cutoff        WCut        ... 1.0000e-14
Angular grids for H and He will be reduced by one unit
Partially contracted basis set               ... on
Rotationally invariant grid construction     ... off

Total number of grid points                  ...    49048
Total number of batches                      ...      785
Average number of points per batch           ...       62
Average number of grid points per atom       ...     1443
UseSFitting                                  ... on

GRIDX 3
-------
General Integration Accuracy     IntAcc      ... 4.338
Radial Grid Type                 RadialGrid  ... OptM3 with GC (2021)
Angular Grid (max. ang.)         AngularGrid ... 3 (Lebedev-194)
Angular grid pruning method      GridPruning ... 4 (adaptive)
Weight generation scheme         WeightScheme... Becke
Basis function cutoff            BFCut       ... 1.0000e-11
Integration weight cutoff        WCut        ... 1.0000e-14
Angular grids for H and He will be reduced by one unit
Partially contracted basis set               ... on
Rotationally invariant grid construction     ... off

Total number of grid points                  ...   107969
Total number of batches                      ...     1706
Average number of points per batch           ...       63
Average number of grid points per atom       ...     3176
UseSFitting                                  ... on

Time for X-Grid setup             =    4.180 sec

--------------
SCF ITERATIONS
--------------
ITER       Energy         Delta-E        Max-DP      RMS-DP      [F,P]     Damp
               ***  Starting incremental Fock matrix formation  ***
  0   -919.9277310964   0.000000000000 0.14479293  0.00171502  0.1475782 0.7000
  1   -920.1254413146  -0.197710218203 0.13450898  0.00146710  0.0851961 0.7000
                               ***Turning on DIIS***
  2   -920.2123523601  -0.086911045484 0.36184593  0.00369934  0.0598292 0.0000
  3   -920.3712976975  -0.158945337456 0.05363267  0.00064536  0.0378352 0.0000
  4   -920.3891454176  -0.017847720099 0.01702930  0.00020410  0.0398233 0.0000
  5   -920.3939152523  -0.004769834714 0.00611034  0.00009753  0.0048544 0.0000
                      *** Initiating the SOSCF procedure ***
                           *** Shutting down DIIS ***
                      *** Re-Reading the Fockian *** 
                      *** Removing any level shift *** 
ITER      Energy       Delta-E        Grad      Rot      Max-DP    RMS-DP
  6   -920.39409986  -0.0001846039  0.000957  0.000957  0.003666  0.000050
               *** Restarting incremental Fock matrix formation ***
  7   -920.39373954   0.0003603153  0.000559  0.002060  0.070860  0.000914
  8   -920.39375664  -0.0000170989  0.001798  0.014560  0.285201  0.002244
  9   -920.39369040   0.0000662429  0.003568  0.008557  0.233834  0.001785
 10   -920.39377174  -0.0000813410  0.000452  0.002741  0.092143  0.000935
 11   -920.39377237  -0.0000006300  0.000445  0.001951  0.045053  0.000510
 12   -920.39378057  -0.0000082010  0.000056  0.000261  0.006466  0.000063
 13   -920.39378043   0.0000001409  0.000074  0.000162  0.005581  0.000054
 14   -920.39378080  -0.0000003718  0.000006  0.000063  0.000612  0.000006
 15   -920.39378081  -0.0000000112  0.000005  0.000059  0.000081  0.000001
                  ***Gradient check signals convergence***
              ***Rediagonalizing the Fockian in SOSCF/NRSCF***

               *****************************************************
               *                     SUCCESS                       *
               *           SCF CONVERGED AFTER  16 CYCLES          *
               *****************************************************

Old exchange energy                            =    -69.130167150 Eh
New exchange energy                            =    -69.129994250 Eh
Exchange energy change after final integration =      0.000172900 Eh
Total energy after final integration           =   -920.393607941 Eh
Final COS-X integration done in                =    76.063 sec

----------------
TOTAL SCF ENERGY
----------------

Total Energy       :         -920.39360794 Eh          -25045.18334 eV

Components:
Nuclear Repulsion  :         1800.88219744 Eh           49004.49593 eV
Electronic Energy  :        -2721.27580538 Eh          -74049.67928 eV
One Electron Energy:        -4819.84089315 Eh         -131154.53847 eV
Two Electron Energy:         2098.56508777 Eh           57104.85919 eV
Max COSX asymmetry :            0.00000564 Eh               0.00015 eV

Virial components:
Potential Energy   :        -1836.17033913 Eh          -49964.73509 eV
Kinetic Energy     :          915.77673118 Eh           24919.55174 eV
Virial Ratio       :            2.00504149


DFT components:
N(Alpha)           :       77.000156722765 electrons
N(Beta)            :       77.000156722765 electrons
N(Total)           :      154.000313445531 electrons
E(XC)              :      -64.621251643971 Eh       
DFET-embed. en.    :        0.000000000000 Eh       

---------------
SCF CONVERGENCE
---------------

  Last Energy change         ...   -2.9905e-08  Tolerance :   1.0000e-08
  Last MAX-Density change    ...    3.1086e-15  Tolerance :   1.0000e-07
  Last RMS-Density change    ...    1.3893e-17  Tolerance :   5.0000e-09
  Last Orbital Gradient      ...    1.0005e-06  Tolerance :   1.0000e-05
  Last Orbital Rotation      ...    1.5185e-05  Tolerance :   1.0000e-05

             **** THE GBW FILE WAS UPDATED (eight_ten.gbw) ****
             **** DENSITY eight_ten.scfp WAS UPDATED ****
             **** ENERGY FILE WAS UPDATED (eight_ten.en.tmp) ****
             **** THE GBW FILE WAS UPDATED (eight_ten.gbw) ****
             **** DENSITY eight_ten.scfp WAS UPDATED ****
----------------
ORBITAL ENERGIES
----------------

  NO   OCC          E(Eh)            E(eV) 
   0   2.0000     -10.586235      -288.0661 
   1   2.0000     -10.582425      -287.9624 
   2   2.0000     -10.574119      -287.7364 
   3   2.0000     -10.571707      -287.6708 
   4   2.0000     -10.571469      -287.6643 
   5   2.0000     -10.569666      -287.6152 
   6   2.0000     -10.568712      -287.5893 
   7   2.0000     -10.568539      -287.5846 
   8   2.0000     -10.566546      -287.5303 
   9   2.0000     -10.566429      -287.5271 
  10   2.0000     -10.564658      -287.4790 
  11   2.0000     -10.563399      -287.4447 
  12   2.0000     -10.562323      -287.4154 
  13   2.0000     -10.561943      -287.4051 
  14   2.0000     -10.561936      -287.4049 
  15   2.0000     -10.561871      -287.4031 
  16   2.0000     -10.556801      -287.2651 
  17   2.0000     -10.555376      -287.2264 
  18   2.0000     -10.553999      -287.1889 
  19   2.0000     -10.553835      -287.1845 
  20   2.0000     -10.553035      -287.1627 
  21   2.0000     -10.552845      -287.1575 
  22   2.0000     -10.552083      -287.1368 
  23   2.0000     -10.550742      -287.1003 
  24   2.0000      -1.029581       -28.0163 
  25   2.0000      -0.990400       -26.9502 
  26   2.0000      -0.988497       -26.8984 
  27   2.0000      -0.938015       -25.5247 
  28   2.0000      -0.936765       -25.4907 
  29   2.0000      -0.917547       -24.9677 
  30   2.0000      -0.884862       -24.0783 
  31   2.0000      -0.868522       -23.6337 
  32   2.0000      -0.850480       -23.1427 
  33   2.0000      -0.848012       -23.0756 
  34   2.0000      -0.816443       -22.2165 
  35   2.0000      -0.811457       -22.0809 
  36   2.0000      -0.732591       -19.9348 
  37   2.0000      -0.729029       -19.8379 
  38   2.0000      -0.724354       -19.7107 
  39   2.0000      -0.722887       -19.6708 
  40   2.0000      -0.713217       -19.4076 
  41   2.0000      -0.645397       -17.5622 
  42   2.0000      -0.641236       -17.4489 
  43   2.0000      -0.625733       -17.0271 
  44   2.0000      -0.614680       -16.7263 
  45   2.0000      -0.610583       -16.6148 
  46   2.0000      -0.598516       -16.2864 
  47   2.0000      -0.553749       -15.0683 
  48   2.0000      -0.551480       -15.0065 
  49   2.0000      -0.538696       -14.6587 
  50   2.0000      -0.536870       -14.6090 
  51   2.0000      -0.525976       -14.3125 
  52   2.0000      -0.518651       -14.1132 
  53   2.0000      -0.515034       -14.0148 
  54   2.0000      -0.501480       -13.6460 
  55   2.0000      -0.498252       -13.5581 
  56   2.0000      -0.486282       -13.2324 
  57   2.0000      -0.479718       -13.0538 
  58   2.0000      -0.472289       -12.8516 
  59   2.0000      -0.472224       -12.8499 
  60   2.0000      -0.469518       -12.7762 
  61   2.0000      -0.461619       -12.5613 
  62   2.0000      -0.437458       -11.9038 
  63   2.0000      -0.434705       -11.8289 
  64   2.0000      -0.427670       -11.6375 
  65   2.0000      -0.409538       -11.1441 
  66   2.0000      -0.407941       -11.1006 
  67   2.0000      -0.393359       -10.7038 
  68   2.0000      -0.389495       -10.5987 
  69   2.0000      -0.386649       -10.5213 
  70   2.0000      -0.339631        -9.2418 
  71   2.0000      -0.333410        -9.0725 
  72   2.0000      -0.317070        -8.6279 
  73   2.0000      -0.315874        -8.5954 
  74   2.0000      -0.260480        -7.0880 
  75   2.0000      -0.257440        -7.0053 
  76   2.0000      -0.236278        -6.4295 
  77   0.0000      -0.145422        -3.9571 
  78   0.0000      -0.044139        -1.2011 
  79   0.0000      -0.041417        -1.1270 
  80   0.0000      -0.001643        -0.0447 
  81   0.0000       0.000661         0.0180 
  82   0.0000       0.017403         0.4736 
  83   0.0000       0.050272         1.3680 
  84   0.0000       0.077419         2.1067 
  85   0.0000       0.082351         2.2409 
  86   0.0000       0.084397         2.2966 
  87   0.0000       0.091516         2.4903 
  88   0.0000       0.099079         2.6961 
  89   0.0000       0.110759         3.0139 
  90   0.0000       0.114738         3.1222 
  91   0.0000       0.117540         3.1984 
  92   0.0000       0.117925         3.2089 
  93   0.0000       0.121180         3.2975 
  94   0.0000       0.123005         3.3471 
  95   0.0000       0.134497         3.6598 
  96   0.0000       0.137301         3.7361 
  97   0.0000       0.137724         3.7477 
  98   0.0000       0.153134         4.1670 
  99   0.0000       0.172204         4.6859 
 100   0.0000       0.176519         4.8033 
 101   0.0000       0.179000         4.8708 
 102   0.0000       0.187365         5.0985 
 103   0.0000       0.190155         5.1744 
 104   0.0000       0.194003         5.2791 
 105   0.0000       0.200766         5.4631 
 106   0.0000       0.207077         5.6348 
 107   0.0000       0.210554         5.7295 
 108   0.0000       0.212572         5.7844 
 109   0.0000       0.226108         6.1527 
 110   0.0000       0.231988         6.3127 
 111   0.0000       0.234354         6.3771 
 112   0.0000       0.237119         6.4523 
 113   0.0000       0.244963         6.6658 
 114   0.0000       0.247402         6.7321 
 115   0.0000       0.261941         7.1278 
 116   0.0000       0.262559         7.1446 
 117   0.0000       0.265407         7.2221 
 118   0.0000       0.268170         7.2973 
 119   0.0000       0.271806         7.3962 
 120   0.0000       0.282233         7.6799 
 121   0.0000       0.283041         7.7020 
 122   0.0000       0.283394         7.7115 
 123   0.0000       0.284845         7.7510 
 124   0.0000       0.291705         7.9377 
 125   0.0000       0.293707         7.9922 
 126   0.0000       0.296477         8.0676 
 127   0.0000       0.302629         8.2350 
 128   0.0000       0.309132         8.4119 
 129   0.0000       0.313698         8.5362 
 130   0.0000       0.318113         8.6563 
 131   0.0000       0.319287         8.6883 
 132   0.0000       0.320339         8.7169 
 133   0.0000       0.321076         8.7369 
 134   0.0000       0.323538         8.8039 
 135   0.0000       0.326512         8.8848 
 136   0.0000       0.336546         9.1579 
 137   0.0000       0.345115         9.3910 
 138   0.0000       0.350307         9.5323 
 139   0.0000       0.354652         9.6506 
 140   0.0000       0.356309         9.6957 
 141   0.0000       0.357954         9.7404 
 142   0.0000       0.358389         9.7523 
 143   0.0000       0.371354        10.1051 
 144   0.0000       0.378453        10.2982 
 145   0.0000       0.380899        10.3648 
 146   0.0000       0.380973        10.3668 
 147   0.0000       0.382361        10.4046 
 148   0.0000       0.382758        10.4154 
 149   0.0000       0.386293        10.5116 
 150   0.0000       0.393837        10.7169 
 151   0.0000       0.397648        10.8205 
 152   0.0000       0.403684        10.9848 
 153   0.0000       0.406124        11.0512 
 154   0.0000       0.411094        11.1864 
 155   0.0000       0.413093        11.2408 
 156   0.0000       0.420453        11.4411 
 157   0.0000       0.420964        11.4550 
 158   0.0000       0.426891        11.6163 
 159   0.0000       0.435184        11.8420 
 160   0.0000       0.439579        11.9616 
 161   0.0000       0.445947        12.1348 
 162   0.0000       0.448835        12.2134 
 163   0.0000       0.455967        12.4075 
 164   0.0000       0.456104        12.4112 
 165   0.0000       0.461930        12.5698 
 166   0.0000       0.465505        12.6670 
 167   0.0000       0.471463        12.8292 
 168   0.0000       0.472836        12.8665 
 169   0.0000       0.476364        12.9625 
 170   0.0000       0.479732        13.0542 
 171   0.0000       0.496190        13.5020 
 172   0.0000       0.508086        13.8257 
 173   0.0000       0.509375        13.8608 
 174   0.0000       0.513136        13.9631 
 175   0.0000       0.515005        14.0140 
 176   0.0000       0.515043        14.0150 
 177   0.0000       0.516622        14.0580 
 178   0.0000       0.530679        14.4405 
 179   0.0000       0.532604        14.4929 
 180   0.0000       0.542704        14.7677 
 181   0.0000       0.545423        14.8417 
 182   0.0000       0.546873        14.8812 
 183   0.0000       0.548456        14.9243 
 184   0.0000       0.552827        15.0432 
 185   0.0000       0.554641        15.0925 
 186   0.0000       0.570164        15.5149 
 187   0.0000       0.573287        15.5999 
 188   0.0000       0.579253        15.7623 
 189   0.0000       0.581126        15.8132 
 190   0.0000       0.587749        15.9935 
 191   0.0000       0.603526        16.4228 
 192   0.0000       0.615369        16.7450 
 193   0.0000       0.631975        17.1969 
 194   0.0000       0.632261        17.2047 
 195   0.0000       0.633879        17.2487 
 196   0.0000       0.634505        17.2657 
 197   0.0000       0.638429        17.3725 
 198   0.0000       0.641128        17.4460 
 199   0.0000       0.650943        17.7131 
 200   0.0000       0.651956        17.7406 
 201   0.0000       0.655060        17.8251 
 202   0.0000       0.662187        18.0190 
 203   0.0000       0.664944        18.0941 
 204   0.0000       0.666738        18.1429 
 205   0.0000       0.670179        18.2365 
 206   0.0000       0.675693        18.3865 
 207   0.0000       0.676822        18.4173 
 208   0.0000       0.685735        18.6598 
 209   0.0000       0.690803        18.7977 
 210   0.0000       0.696241        18.9457 
 211   0.0000       0.699056        19.0223 
 212   0.0000       0.706860        19.2346 
 213   0.0000       0.724661        19.7190 
 214   0.0000       0.724946        19.7268 
 215   0.0000       0.727603        19.7991 
 216   0.0000       0.738666        20.1001 
 217   0.0000       0.744494        20.2587 
 218   0.0000       0.753649        20.5078 
 219   0.0000       0.763510        20.7762 
 220   0.0000       0.765730        20.8366 
 221   0.0000       0.765796        20.8384 
 222   0.0000       0.768824        20.9208 
 223   0.0000       0.780482        21.2380 
 224   0.0000       0.780667        21.2430 
 225   0.0000       0.782387        21.2898 
 226   0.0000       0.783040        21.3076 
 227   0.0000       0.787609        21.4319 
 228   0.0000       0.790792        21.5185 
 229   0.0000       0.792935        21.5769 
 230   0.0000       0.798447        21.7268 
 231   0.0000       0.803210        21.8565 
 232   0.0000       0.807687        21.9783 
 233   0.0000       0.821303        22.3488 
 234   0.0000       0.825949        22.4752 
 235   0.0000       0.829403        22.5692 
 236   0.0000       0.836046        22.7500 
 237   0.0000       0.836429        22.7604 
 238   0.0000       0.846060        23.0225 
 239   0.0000       0.848396        23.0860 
 240   0.0000       0.858938        23.3729 
 241   0.0000       0.866890        23.5893 
 242   0.0000       0.871632        23.7183 
 243   0.0000       0.872622        23.7452 
 244   0.0000       0.873564        23.7709 
 245   0.0000       0.885717        24.1016 
 246   0.0000       0.888850        24.1868 
 247   0.0000       0.888930        24.1890 
 248   0.0000       0.897267        24.4159 
 249   0.0000       0.899439        24.4750 
 250   0.0000       0.909967        24.7615 
 251   0.0000       0.914299        24.8793 
 252   0.0000       0.918637        24.9974 
 253   0.0000       0.921968        25.0880 
 254   0.0000       0.925526        25.1848 
 255   0.0000       0.937581        25.5129 
 256   0.0000       0.950314        25.8594 
 257   0.0000       0.952319        25.9139 
 258   0.0000       0.961035        26.1511 
 259   0.0000       0.969686        26.3865 
 260   0.0000       0.985453        26.8155 
 261   0.0000       0.996893        27.1268 
 262   0.0000       0.999009        27.1844 
 263   0.0000       1.017472        27.6868 
 264   0.0000       1.018844        27.7241 
 265   0.0000       1.022057        27.8116 
 266   0.0000       1.023958        27.8633 
 267   0.0000       1.051991        28.6261 
 268   0.0000       1.052370        28.6364 
 269   0.0000       1.055917        28.7330 
 270   0.0000       1.069352        29.0985 
 271   0.0000       1.076029        29.2802 
 272   0.0000       1.079242        29.3677 
 273   0.0000       1.084699        29.5162 
 274   0.0000       1.090838        29.6832 
 275   0.0000       1.100781        29.9538 
 276   0.0000       1.102882        30.0109 
 277   0.0000       1.118216        30.4282 
 278   0.0000       1.124300        30.5938 
 279   0.0000       1.127152        30.6714 
 280   0.0000       1.136284        30.9199 
 281   0.0000       1.140189        31.0261 
 282   0.0000       1.193612        32.4798 
 283   0.0000       1.197142        32.5759 
 284   0.0000       1.203793        32.7569 
 285   0.0000       1.204676        32.7809 
 286   0.0000       1.212494        32.9936 
 287   0.0000       1.219053        33.1721 
 288   0.0000       1.228315        33.4242 
 289   0.0000       1.231216        33.5031 
 290   0.0000       1.240549        33.7570 
 291   0.0000       1.245239        33.8847 
 292   0.0000       1.247690        33.9514 
 293   0.0000       1.250048        34.0155 
 294   0.0000       1.259418        34.2705 
 295   0.0000       1.273628        34.6572 
 296   0.0000       1.277739        34.7691 
 297   0.0000       1.279160        34.8077 
 298   0.0000       1.282142        34.8889 
 299   0.0000       1.291164        35.1344 
 300   0.0000       1.291276        35.1374 
 301   0.0000       1.292711        35.1765 
 302   0.0000       1.299365        35.3575 
 303   0.0000       1.310401        35.6578 
 304   0.0000       1.318268        35.8719 
 305   0.0000       1.324119        36.0311 
 306   0.0000       1.334692        36.3188 
 307   0.0000       1.339329        36.4450 
 308   0.0000       1.359721        36.9999 
 309   0.0000       1.364809        37.1383 
 310   0.0000       1.367194        37.2032 
 311   0.0000       1.370252        37.2865 
 312   0.0000       1.371333        37.3159 
 313   0.0000       1.379317        37.5331 
 314   0.0000       1.395658        37.9778 
 315   0.0000       1.397308        38.0227 
 316   0.0000       1.399986        38.0956 
 317   0.0000       1.404879        38.2287 
 318   0.0000       1.410563        38.3834 
 319   0.0000       1.414820        38.4992 
 320   0.0000       1.424049        38.7503 
 321   0.0000       1.424697        38.7680 
 322   0.0000       1.432152        38.9708 
 323   0.0000       1.460068        39.7305 
 324   0.0000       1.465875        39.8885 
 325   0.0000       1.472976        40.0817 
 326   0.0000       1.479435        40.2575 
 327   0.0000       1.491545        40.5870 
 328   0.0000       1.494153        40.6580 
 329   0.0000       1.495257        40.6880 
 330   0.0000       1.504182        40.9309 
 331   0.0000       1.510981        41.1159 
 332   0.0000       1.517864        41.3032 
 333   0.0000       1.525774        41.5184 
 334   0.0000       1.539057        41.8799 
 335   0.0000       1.540384        41.9160 
 336   0.0000       1.545965        42.0679 
 337   0.0000       1.547002        42.0961 
 338   0.0000       1.553307        42.2676 
 339   0.0000       1.567802        42.6621 
 340   0.0000       1.571133        42.7527 
 341   0.0000       1.574379        42.8410 
 342   0.0000       1.575270        42.8653 
 343   0.0000       1.591517        43.3074 
 344   0.0000       1.595707        43.4214 
 345   0.0000       1.602292        43.6006 
 346   0.0000       1.622449        44.1491 
 347   0.0000       1.622678        44.1553 
 348   0.0000       1.632317        44.4176 
 349   0.0000       1.634600        44.4797 
 350   0.0000       1.636453        44.5301 
 351   0.0000       1.649010        44.8719 
 352   0.0000       1.651369        44.9360 
 353   0.0000       1.653779        45.0016 
 354   0.0000       1.655446        45.0470 
 355   0.0000       1.658915        45.1414 
 356   0.0000       1.660262        45.1780 
 357   0.0000       1.665613        45.3236 
 358   0.0000       1.708130        46.4806 
 359   0.0000       1.711175        46.5634 
 360   0.0000       1.719920        46.8014 
 361   0.0000       1.722972        46.8844 
 362   0.0000       1.729030        47.0493 
 363   0.0000       1.729200        47.0539 
 364   0.0000       1.734631        47.2017 
 365   0.0000       1.735750        47.2322 
 366   0.0000       1.743661        47.4474 
 367   0.0000       1.747618        47.5551 
 368   0.0000       1.748908        47.5902 
 369   0.0000       1.752602        47.6907 
 370   0.0000       1.760884        47.9161 
 371   0.0000       1.772619        48.2354 
 372   0.0000       1.778499        48.3954 
 373   0.0000       1.779810        48.4311 
 374   0.0000       1.782678        48.5091 
 375   0.0000       1.798271        48.9334 
 376   0.0000       1.810671        49.2709 
 377   0.0000       1.821921        49.5770 
 378   0.0000       1.830564        49.8122 
 379   0.0000       1.855667        50.4953 
 380   0.0000       1.862998        50.6948 
 381   0.0000       1.886656        51.3385 
 382   0.0000       1.900886        51.7257 
 383   0.0000       1.904136        51.8142 
 384   0.0000       1.909466        51.9592 
 385   0.0000       1.919482        52.2317 
 386   0.0000       1.925796        52.4036 
 387   0.0000       1.947092        52.9831 
 388   0.0000       1.952292        53.1246 
 389   0.0000       1.953035        53.1448 
 390   0.0000       1.964667        53.4613 
 391   0.0000       1.974336        53.7244 
 392   0.0000       1.986746        54.0621 
 393   0.0000       1.987709        54.0883 
 394   0.0000       1.994865        54.2830 
 395   0.0000       1.997571        54.3567 
 396   0.0000       2.019785        54.9611 
 397   0.0000       2.024623        55.0928 
[...]

For completeness - the Gibbs free energy minus the electronic energy
G-E(el)                           ...     -3.61980060 Eh  -2271.45 kcal/mol


The first frequency considered to be a vibration is 6
The total number of vibrations considered is 96


--------------------------
THERMOCHEMISTRY AT 8000.00K
--------------------------

Temperature         ... 8000.00 K
Pressure            ... 1.00 atm
Total Mass          ... 298.34 AMU

Throughout the following assumptions are being made:
  (1) The electronic state is orbitally nondegenerate
  (2) There are no thermally accessible electronically excited states
  (3) Hindered rotations indicated by low frequency modes are not
      treated as such but are treated as vibrations and this may
      cause some error
  (4) All equations used are the standard statistical mechanics
      equations for an ideal gas
  (5) All vibrations are strictly harmonic

freq.      83.06  E(vib)   ...      15.78 
freq.      90.01  E(vib)   ...      15.77 
freq.     118.03  E(vib)   ...      15.73 
freq.     164.01  E(vib)   ...      15.66 
freq.     221.61  E(vib)   ...      15.58 
freq.     246.32  E(vib)   ...      15.55 
freq.     272.99  E(vib)   ...      15.51 
freq.     305.73  E(vib)   ...      15.46 
freq.     307.95  E(vib)   ...      15.46 
freq.     311.89  E(vib)   ...      15.46 
freq.     359.03  E(vib)   ...      15.39 
freq.     373.70  E(vib)   ...      15.37 
freq.     379.68  E(vib)   ...      15.36 
freq.     392.51  E(vib)   ...      15.34 
freq.     420.41  E(vib)   ...      15.30 
freq.     448.48  E(vib)   ...      15.27 
freq.     451.00  E(vib)   ...      15.26 
freq.     489.46  E(vib)   ...      15.21 
freq.     493.77  E(vib)   ...      15.20 
freq.     505.49  E(vib)   ...      15.19 
freq.     508.69  E(vib)   ...      15.18 
freq.     527.96  E(vib)   ...      15.16 
freq.     553.57  E(vib)   ...      15.12 
freq.     576.08  E(vib)   ...      15.09 
freq.     581.92  E(vib)   ...      15.08 
freq.     597.39  E(vib)   ...      15.06 
freq.     632.66  E(vib)   ...      15.01 
freq.     652.55  E(vib)   ...      14.98 
freq.     666.71  E(vib)   ...      14.96 
freq.     681.07  E(vib)   ...      14.94 
freq.     682.15  E(vib)   ...      14.94 
freq.     691.40  E(vib)   ...      14.93 
freq.     741.46  E(vib)   ...      14.86 
freq.     758.93  E(vib)   ...      14.84 
freq.     773.50  E(vib)   ...      14.82 
freq.     790.94  E(vib)   ...      14.79 
freq.     798.76  E(vib)   ...      14.78 
freq.     835.29  E(vib)   ...      14.73 
freq.     837.07  E(vib)   ...      14.73 
freq.     841.89  E(vib)   ...      14.72 
freq.     867.91  E(vib)   ...      14.69 
freq.     869.66  E(vib)   ...      14.69 
freq.     882.52  E(vib)   ...      14.67 
freq.     896.37  E(vib)   ...      14.65 
freq.     923.53  E(vib)   ...      14.61 
freq.     944.37  E(vib)   ...      14.59 
freq.     981.63  E(vib)   ...      14.54 
freq.     989.22  E(vib)   ...      14.53 
freq.     995.09  E(vib)   ...      14.52 
freq.     999.75  E(vib)   ...      14.51 
freq.    1014.27  E(vib)   ...      14.49 
freq.    1029.32  E(vib)   ...      14.47 
freq.    1095.28  E(vib)   ...      14.38 
freq.    1141.29  E(vib)   ...      14.32 
freq.    1153.26  E(vib)   ...      14.31 
freq.    1171.76  E(vib)   ...      14.28 
freq.    1179.29  E(vib)   ...      14.27 
freq.    1195.85  E(vib)   ...      14.25 
freq.    1208.57  E(vib)   ...      14.23 
freq.    1224.81  E(vib)   ...      14.21 
freq.    1247.48  E(vib)   ...      14.18 
freq.    1252.04  E(vib)   ...      14.18 
freq.    1253.54  E(vib)   ...      14.17 
freq.    1276.73  E(vib)   ...      14.14 
freq.    1309.41  E(vib)   ...      14.10 
freq.    1330.59  E(vib)   ...      14.07 
freq.    1342.26  E(vib)   ...      14.06 
freq.    1373.39  E(vib)   ...      14.02 
freq.    1408.41  E(vib)   ...      13.97 
freq.    1426.43  E(vib)   ...      13.95 
freq.    1431.00  E(vib)   ...      13.94 
freq.    1446.09  E(vib)   ...      13.92 
freq.    1457.60  E(vib)   ...      13.91 
freq.    1463.10  E(vib)   ...      13.90 
freq.    1493.82  E(vib)   ...      13.86 
freq.    1500.12  E(vib)   ...      13.85 
freq.    1529.55  E(vib)   ...      13.81 
freq.    1555.03  E(vib)   ...      13.78 
freq.    1572.67  E(vib)   ...      13.76 
freq.    1589.61  E(vib)   ...      13.73 
freq.    1600.81  E(vib)   ...      13.72 
freq.    1673.80  E(vib)   ...      13.63 
freq.    1686.49  E(vib)   ...      13.61 
freq.    1693.13  E(vib)   ...      13.60 
freq.    1710.89  E(vib)   ...      13.58 
freq.    1786.18  E(vib)   ...      13.48 
freq.    3188.63  E(vib)   ...      11.77 
freq.    3202.67  E(vib)   ...      11.76 
freq.    3203.53  E(vib)   ...      11.76 
freq.    3204.29  E(vib)   ...      11.75 
freq.    3212.46  E(vib)   ...      11.75 
freq.    3219.58  E(vib)   ...      11.74 
freq.    3220.24  E(vib)   ...      11.74 
freq.    3220.84  E(vib)   ...      11.74 
freq.    3237.36  E(vib)   ...      11.72 
freq.    3324.30  E(vib)   ...      11.62 

------------
INNER ENERGY
------------

The inner energy is: U= E(el) + E(ZPE) + E(vib) + E(rot) + E(trans)
    E(el)   - is the total energy from the electronic structure calculation
              = E(kin-el) + E(nuc-el) + E(el-el) + E(nuc-nuc)
    E(ZPE)  - the the zero temperature vibrational energy from the frequency calculation
    E(vib)  - the the finite temperature correction to E(ZPE) due to population
              of excited vibrational states
    E(rot)  - is the rotational thermal energy
    E(trans)- is the translational thermal energy

Summary of contributions to the inner energy U:
Electronic energy                ...   -920.40891882 Eh
Zero point energy                ...      0.25418192 Eh     159.50 kcal/mol
Thermal vibrational correction   ...      2.19127334 Eh    1375.04 kcal/mol
Thermal rotational correction    ...      0.03800158 Eh      23.85 kcal/mol
Thermal translational correction ...      0.03800158 Eh      23.85 kcal/mol
-----------------------------------------------------------------------
Total thermal energy                   -917.88746040 Eh


Summary of corrections to the electronic energy:
(perhaps to be used in another calculation)
Total thermal correction                  2.26727650 Eh    1422.73 kcal/mol
Non-thermal (ZPE) correction              0.25418192 Eh     159.50 kcal/mol
-----------------------------------------------------------------------
Total correction                          2.52145842 Eh    1582.24 kcal/mol


--------
ENTHALPY
--------

The enthalpy is H = U + kB*T
                kB is Boltzmann's constant
Total free energy                 ...   -917.88746040 Eh 
Thermal Enthalpy correction       ...      0.02533514 Eh      15.90 kcal/mol
-----------------------------------------------------------------------
Total Enthalpy                    ...   -917.86212526 Eh


Note: Rotational entropy computed according to Herzberg 
Infrared and Raman Spectra, Chapter V,1, Van Nostrand Reinhold, 1945 
Point Group:  Cs, Symmetry Number:   1  
Rotational constants in cm-1:     0.011551     0.011260     0.005702 

Vibrational entropy computed according to the QRRHO of S. Grimme
Chem.Eur.J. 2012 18 9955


-------
ENTROPY
-------

The entropy contributions are T*S = T*(S(el)+S(vib)+S(rot)+S(trans))
     S(el)   - electronic entropy
     S(vib)  - vibrational entropy
     S(rot)  - rotational entropy
     S(trans)- translational entropy
The entropies will be listed as multiplied by the temperature to get
units of energy

Electronic entropy                ...      0.00000000 Eh      0.00 kcal/mol
Vibrational entropy               ...      6.78499095 Eh   4257.64 kcal/mol
Rotational entropy                ...      0.55899554 Eh    350.77 kcal/mol
Translational entropy             ...      0.75624431 Eh    474.55 kcal/mol
-----------------------------------------------------------------------
Final entropy term                ...      8.10023080 Eh   5082.96 kcal/mol

In case the symmetry of your molecule has not been determined correctly
or in case you have a reason to use a different symmetry number we print 
out the resulting rotational entropy values for sn=1,12 :
 --------------------------------------------------------
|  sn= 1 | S(rot)=       0.55899554 Eh    350.77 kcal/mol|
|  sn= 2 | S(rot)=       0.54143508 Eh    339.75 kcal/mol|
|  sn= 3 | S(rot)=       0.53116287 Eh    333.31 kcal/mol|
|  sn= 4 | S(rot)=       0.52387462 Eh    328.74 kcal/mol|
|  sn= 5 | S(rot)=       0.51822141 Eh    325.19 kcal/mol|
|  sn= 6 | S(rot)=       0.51360241 Eh    322.29 kcal/mol|
|  sn= 7 | S(rot)=       0.50969709 Eh    319.84 kcal/mol|
|  sn= 8 | S(rot)=       0.50631416 Eh    317.72 kcal/mol|
|  sn= 9 | S(rot)=       0.50333020 Eh    315.84 kcal/mol|
|  sn=10 | S(rot)=       0.50066095 Eh    314.17 kcal/mol|
|  sn=11 | S(rot)=       0.49824633 Eh    312.65 kcal/mol|
|  sn=12 | S(rot)=       0.49604195 Eh    311.27 kcal/mol|
 --------------------------------------------------------


-------------------
GIBBS FREE ENERGY
-------------------

The Gibbs free energy is G = H - T*S

Total enthalpy                    ...   -917.86212526 Eh 
Total entropy correction          ...     -8.10023080 Eh  -5082.96 kcal/mol
-----------------------------------------------------------------------
Final Gibbs free energy         ...   -925.96235606 Eh

For completeness - the Gibbs free energy minus the electronic energy
G-E(el)                           ...     -5.55343724 Eh  -3484.83 kcal/mol


The first frequency considered to be a vibration is 6
The total number of vibrations considered is 96


--------------------------
THERMOCHEMISTRY AT 10000.00K
--------------------------

Temperature         ... 10000.00 K
Pressure            ... 1.00 atm
Total Mass          ... 298.34 AMU

Throughout the following assumptions are being made:
  (1) The electronic state is orbitally nondegenerate
  (2) There are no thermally accessible electronically excited states
  (3) Hindered rotations indicated by low frequency modes are not
      treated as such but are treated as vibrations and this may
      cause some error
  (4) All equations used are the standard statistical mechanics
      equations for an ideal gas
  (5) All vibrations are strictly harmonic

freq.      83.06  E(vib)   ...      19.75 
freq.      90.01  E(vib)   ...      19.74 
freq.     118.03  E(vib)   ...      19.70 
freq.     164.01  E(vib)   ...      19.64 
freq.     221.61  E(vib)   ...      19.56 
freq.     246.32  E(vib)   ...      19.52 
freq.     272.99  E(vib)   ...      19.48 
freq.     305.73  E(vib)   ...      19.44 
freq.     307.95  E(vib)   ...      19.44 
freq.     311.89  E(vib)   ...      19.43 
freq.     359.03  E(vib)   ...      19.36 
freq.     373.70  E(vib)   ...      19.34 
freq.     379.68  E(vib)   ...      19.33 
freq.     392.51  E(vib)   ...      19.32 
freq.     420.41  E(vib)   ...      19.28 
freq.     448.48  E(vib)   ...      19.24 
freq.     451.00  E(vib)   ...      19.23 
freq.     489.46  E(vib)   ...      19.18 
freq.     493.77  E(vib)   ...      19.17 
freq.     505.49  E(vib)   ...      19.16 
freq.     508.69  E(vib)   ...      19.15 
freq.     527.96  E(vib)   ...      19.13 
freq.     553.57  E(vib)   ...      19.09 
freq.     576.08  E(vib)   ...      19.06 
freq.     581.92  E(vib)   ...      19.05 
freq.     597.39  E(vib)   ...      19.03 
freq.     632.66  E(vib)   ...      18.98 
freq.     652.55  E(vib)   ...      18.95 
freq.     666.71  E(vib)   ...      18.93 
freq.     681.07  E(vib)   ...      18.91 
freq.     682.15  E(vib)   ...      18.91 
freq.     691.40  E(vib)   ...      18.90 
freq.     741.46  E(vib)   ...      18.83 
freq.     758.93  E(vib)   ...      18.81 
freq.     773.50  E(vib)   ...      18.79 
freq.     790.94  E(vib)   ...      18.76 
freq.     798.76  E(vib)   ...      18.75 
freq.     835.29  E(vib)   ...      18.70 
freq.     837.07  E(vib)   ...      18.70 
freq.     841.89  E(vib)   ...      18.69 
freq.     867.91  E(vib)   ...      18.66 
freq.     869.66  E(vib)   ...      18.66 
freq.     882.52  E(vib)   ...      18.64 
freq.     896.37  E(vib)   ...      18.62 
freq.     923.53  E(vib)   ...      18.58 
freq.     944.37  E(vib)   ...      18.55 
freq.     981.63  E(vib)   ...      18.50 
freq.     989.22  E(vib)   ...      18.49 
freq.     995.09  E(vib)   ...      18.48 
freq.     999.75  E(vib)   ...      18.48 
freq.    1014.27  E(vib)   ...      18.46 
freq.    1029.32  E(vib)   ...      18.44 
freq.    1095.28  E(vib)   ...      18.35 
freq.    1141.29  E(vib)   ...      18.29 
freq.    1153.26  E(vib)   ...      18.27 
freq.    1171.76  E(vib)   ...      18.24 
freq.    1179.29  E(vib)   ...      18.23 
freq.    1195.85  E(vib)   ...      18.21 
freq.    1208.57  E(vib)   ...      18.19 
freq.    1224.81  E(vib)   ...      18.17 
freq.    1247.48  E(vib)   ...      18.14 
freq.    1252.04  E(vib)   ...      18.14 
freq.    1253.54  E(vib)   ...      18.13 
freq.    1276.73  E(vib)   ...      18.10 
freq.    1309.41  E(vib)   ...      18.06 
freq.    1330.59  E(vib)   ...      18.03 
freq.    1342.26  E(vib)   ...      18.02 
freq.    1373.39  E(vib)   ...      17.97 
freq.    1408.41  E(vib)   ...      17.93 
freq.    1426.43  E(vib)   ...      17.90 
freq.    1431.00  E(vib)   ...      17.90 
freq.    1446.09  E(vib)   ...      17.88 
freq.    1457.60  E(vib)   ...      17.86 
freq.    1463.10  E(vib)   ...      17.85 
freq.    1493.82  E(vib)   ...      17.81 
freq.    1500.12  E(vib)   ...      17.81 
freq.    1529.55  E(vib)   ...      17.77 
freq.    1555.03  E(vib)   ...      17.73 
freq.    1572.67  E(vib)   ...      17.71 
freq.    1589.61  E(vib)   ...      17.69 
freq.    1600.81  E(vib)   ...      17.67 
freq.    1673.80  E(vib)   ...      17.58 
freq.    1686.49  E(vib)   ...      17.56 
freq.    1693.13  E(vib)   ...      17.55 
freq.    1710.89  E(vib)   ...      17.53 
freq.    1786.18  E(vib)   ...      17.43 
freq.    3188.63  E(vib)   ...      15.66 
freq.    3202.67  E(vib)   ...      15.64 
freq.    3203.53  E(vib)   ...      15.64 
freq.    3204.29  E(vib)   ...      15.64 
freq.    3212.46  E(vib)   ...      15.63 
freq.    3219.58  E(vib)   ...      15.62 
freq.    3220.24  E(vib)   ...      15.62 
freq.    3220.84  E(vib)   ...      15.62 
freq.    3237.36  E(vib)   ...      15.60 
freq.    3324.30  E(vib)   ...      15.50 

------------
INNER ENERGY
------------

The inner energy is: U= E(el) + E(ZPE) + E(vib) + E(rot) + E(trans)
    E(el)   - is the total energy from the electronic structure calculation
              = E(kin-el) + E(nuc-el) + E(el-el) + E(nuc-nuc)
    E(ZPE)  - the the zero temperature vibrational energy from the frequency calculation
    E(vib)  - the the finite temperature correction to E(ZPE) due to population
              of excited vibrational states
    E(rot)  - is the rotational thermal energy
    E(trans)- is the translational thermal energy

Summary of contributions to the inner energy U:
Electronic energy                ...   -920.40891882 Eh
Zero point energy                ...      0.25418192 Eh     159.50 kcal/mol
Thermal vibrational correction   ...      2.79667341 Eh    1754.94 kcal/mol
Thermal rotational correction    ...      0.04750198 Eh      29.81 kcal/mol
Thermal translational correction ...      0.04750198 Eh      29.81 kcal/mol
-----------------------------------------------------------------------
Total thermal energy                   -917.26305954 Eh


Summary of corrections to the electronic energy:
(perhaps to be used in another calculation)
Total thermal correction                  2.89167736 Eh    1814.55 kcal/mol
Non-thermal (ZPE) correction              0.25418192 Eh     159.50 kcal/mol
-----------------------------------------------------------------------
Total correction                          3.14585928 Eh    1974.05 kcal/mol


--------
ENTHALPY
--------

The enthalpy is H = U + kB*T
                kB is Boltzmann's constant
Total free energy                 ...   -917.26305954 Eh 
Thermal Enthalpy correction       ...      0.03166893 Eh      19.87 kcal/mol
-----------------------------------------------------------------------
Total Enthalpy                    ...   -917.23139061 Eh


Note: Rotational entropy computed according to Herzberg 
Infrared and Raman Spectra, Chapter V,1, Van Nostrand Reinhold, 1945 
Point Group:  Cs, Symmetry Number:   1  
Rotational constants in cm-1:     0.011551     0.011260     0.005702 

Vibrational entropy computed according to the QRRHO of S. Grimme
Chem.Eur.J. 2012 18 9955


-------
ENTROPY
-------

The entropy contributions are T*S = T*(S(el)+S(vib)+S(rot)+S(trans))
     S(el)   - electronic entropy
     S(vib)  - vibrational entropy
     S(rot)  - rotational entropy
     S(trans)- translational entropy
The entropies will be listed as multiplied by the temperature to get
units of energy

Electronic entropy                ...      0.00000000 Eh      0.00 kcal/mol
Vibrational entropy               ...      9.14991389 Eh   5741.65 kcal/mol
Rotational entropy                ...      0.70934418 Eh    445.12 kcal/mol
Translational entropy             ...      0.96297166 Eh    604.27 kcal/mol
-----------------------------------------------------------------------
Final entropy term                ...     10.82222973 Eh   6791.04 kcal/mol

In case the symmetry of your molecule has not been determined correctly
or in case you have a reason to use a different symmetry number we print 
out the resulting rotational entropy values for sn=1,12 :
 --------------------------------------------------------
|  sn= 1 | S(rot)=       0.70934418 Eh    445.12 kcal/mol|
|  sn= 2 | S(rot)=       0.68739361 Eh    431.35 kcal/mol|
|  sn= 3 | S(rot)=       0.67455334 Eh    423.29 kcal/mol|
|  sn= 4 | S(rot)=       0.66544303 Eh    417.57 kcal/mol|
|  sn= 5 | S(rot)=       0.65837653 Eh    413.14 kcal/mol|
|  sn= 6 | S(rot)=       0.65260277 Eh    409.51 kcal/mol|
|  sn= 7 | S(rot)=       0.64772113 Eh    406.45 kcal/mol|
|  sn= 8 | S(rot)=       0.64349246 Eh    403.80 kcal/mol|
|  sn= 9 | S(rot)=       0.63976251 Eh    401.46 kcal/mol|
|  sn=10 | S(rot)=       0.63642595 Eh    399.36 kcal/mol|
|  sn=11 | S(rot)=       0.63340767 Eh    397.47 kcal/mol|
|  sn=12 | S(rot)=       0.63065220 Eh    395.74 kcal/mol|
 --------------------------------------------------------


-------------------
GIBBS FREE ENERGY
-------------------

The Gibbs free energy is G = H - T*S

Total enthalpy                    ...   -917.23139061 Eh 
Total entropy correction          ...    -10.82222973 Eh  -6791.04 kcal/mol
-----------------------------------------------------------------------
Final Gibbs free energy         ...   -928.05362034 Eh

For completeness - the Gibbs free energy minus the electronic energy
G-E(el)                           ...     -7.64470152 Eh  -4797.11 kcal/mol


Timings for individual modules:

Sum of individual times         ...    25189.821 sec (= 419.830 min)
GTO integral calculation        ...       34.039 sec (=   0.567 min)   0.1 %
SCF iterations                  ...     7125.003 sec (= 118.750 min)  28.3 %
SCF Gradient evaluation         ...     1779.557 sec (=  29.659 min)   7.1 %
Geometry relaxation             ...        2.628 sec (=   0.044 min)   0.0 %
Analytical frequency calculation...    16248.594 sec (= 270.810 min)  64.5 %
                             ****ORCA TERMINATED NORMALLY****
TOTAL RUN TIME: 0 days 6 hours 59 minutes 58 seconds 700 msec
