
                                 *****************
                                 * O   R   C   A *
                                 *****************

                                            #,                                       
                                            ###                                      
                                            ####                                     
                                            #####                                    
                                            ######                                   
                                           ########,                                 
                                     ,,################,,,,,                         
                               ,,#################################,,                 
                          ,,##########################################,,             
                       ,#########################################, ''#####,          
                    ,#############################################,,   '####,        
                  ,##################################################,,,,####,       
                ,###########''''           ''''###############################       
              ,#####''   ,,,,##########,,,,          '''####'''          '####       
            ,##' ,,,,###########################,,,                        '##       
           ' ,,###''''                  '''############,,,                           
         ,,##''                                '''############,,,,        ,,,,,,###''
      ,#''                                            '''#######################'''  
     '                                                          ''''####''''         
             ,#######,   #######,   ,#######,      ##                                
            ,#'     '#,  ##    ##  ,#'     '#,    #''#        ######   ,####,        
            ##       ##  ##   ,#'  ##            #'  '#       #        #'  '#        
            ##       ##  #######   ##           ,######,      #####,   #    #        
            '#,     ,#'  ##    ##  '#,     ,#' ,#      #,         ##   #,  ,#        
             '#######'   ##     ##  '#######'  #'      '#     #####' # '####'        



                  #######################################################
                  #                        -***-                        #
                  #          Department of theory and spectroscopy      #
                  #    Directorship and core code : Frank Neese         #
                  #        Max Planck Institute fuer Kohlenforschung    #
                  #                Kaiser Wilhelm Platz 1               #
                  #                 D-45470 Muelheim/Ruhr               #
                  #                      Germany                        #
                  #                                                     #
                  #                  All rights reserved                #
                  #                        -***-                        #
                  #######################################################



                         Program Version 5.0.4 -  RELEASE  -

 With contributions from (in alphabetic order):
   Daniel Aravena         : Magnetic Suceptibility
   Michael Atanasov       : Ab Initio Ligand Field Theory (pilot matlab implementation)
   Alexander A. Auer      : GIAO ZORA, VPT2 properties, NMR spectrum
   Ute Becker             : Parallelization
   Giovanni Bistoni       : ED, misc. LED, open-shell LED, HFLD
   Martin Brehm           : Molecular dynamics
   Dmytro Bykov           : SCF Hessian
   Vijay G. Chilkuri      : MRCI spin determinant printing, contributions to CSF-ICE
   Dipayan Datta          : RHF DLPNO-CCSD density
   Achintya Kumar Dutta   : EOM-CC, STEOM-CC
   Dmitry Ganyushin       : Spin-Orbit,Spin-Spin,Magnetic field MRCI
   Miquel Garcia          : C-PCM and meta-GGA Hessian, CC/C-PCM, Gaussian charge scheme
   Yang Guo               : DLPNO-NEVPT2, F12-NEVPT2, CIM, IAO-localization
   Andreas Hansen         : Spin unrestricted coupled pair/coupled cluster methods
   Benjamin Helmich-Paris : MC-RPA, TRAH-SCF, COSX integrals
   Lee Huntington         : MR-EOM, pCC
   Robert Izsak           : Overlap fitted RIJCOSX, COSX-SCS-MP3, EOM
   Marcus Kettner         : VPT2
   Christian Kollmar      : KDIIS, OOCD, Brueckner-CCSD(T), CCSD density, CASPT2, CASPT2-K
   Simone Kossmann        : Meta GGA functionals, TD-DFT gradient, OOMP2, MP2 Hessian
   Martin Krupicka        : Initial AUTO-CI
   Lucas Lang             : DCDCAS
   Marvin Lechner         : AUTO-CI (C++ implementation), FIC-MRCC
   Dagmar Lenk            : GEPOL surface, SMD
   Dimitrios Liakos       : Extrapolation schemes; Compound Job, initial MDCI parallelization
   Dimitrios Manganas     : Further ROCIS development; embedding schemes
   Dimitrios Pantazis     : SARC Basis sets
   Anastasios Papadopoulos: AUTO-CI, single reference methods and gradients
   Taras Petrenko         : DFT Hessian,TD-DFT gradient, ASA, ECA, R-Raman, ABS, FL, XAS/XES, NRVS
   Peter Pinski           : DLPNO-MP2, DLPNO-MP2 Gradient
   Christoph Reimann      : Effective Core Potentials
   Marius Retegan         : Local ZFS, SOC
   Christoph Riplinger    : Optimizer, TS searches, QM/MM, DLPNO-CCSD(T), (RO)-DLPNO pert. Triples
   Tobias Risthaus        : Range-separated hybrids, TD-DFT gradient, RPA, STAB
   Michael Roemelt        : Original ROCIS implementation
   Masaaki Saitow         : Open-shell DLPNO-CCSD energy and density
   Barbara Sandhoefer     : DKH picture change effects
   Avijit Sen             : IP-ROCIS
   Kantharuban Sivalingam : CASSCF convergence, NEVPT2, FIC-MRCI
   Bernardo de Souza      : ESD, SOC TD-DFT
   Georgi Stoychev        : AutoAux, RI-MP2 NMR, DLPNO-MP2 response
   Willem Van den Heuvel  : Paramagnetic NMR
   Boris Wezisla          : Elementary symmetry handling
   Frank Wennmohs         : Technical directorship


 We gratefully acknowledge several colleagues who have allowed us to
 interface, adapt or use parts of their codes:
   Stefan Grimme, W. Hujo, H. Kruse, P. Pracht,  : VdW corrections, initial TS optimization,
                  C. Bannwarth, S. Ehlert          DFT functionals, gCP, sTDA/sTD-DF
   Ed Valeev, F. Pavosevic, A. Kumar             : LibInt (2-el integral package), F12 methods
   Garnet Chan, S. Sharma, J. Yang, R. Olivares  : DMRG
   Ulf Ekstrom                                   : XCFun DFT Library
   Mihaly Kallay                                 : mrcc  (arbitrary order and MRCC methods)
   Jiri Pittner, Ondrej Demel                    : Mk-CCSD
   Frank Weinhold                                : gennbo (NPA and NBO analysis)
   Christopher J. Cramer and Donald G. Truhlar   : smd solvation model
   Lars Goerigk                                  : TD-DFT with DH, B97 family of functionals
   V. Asgeirsson, H. Jonsson                     : NEB implementation
   FAccTs GmbH                                   : IRC, NEB, NEB-TS, DLPNO-Multilevel, CI-OPT
                                                   MM, QMMM, 2- and 3-layer-ONIOM, Crystal-QMMM,
                                                   LR-CPCM, SF, NACMEs, symmetry and pop. for TD-DFT,
                                                   nearIR, NL-DFT gradient (VV10), updates on ESD,
                                                   ML-optimized integration grids
   S Lehtola, MJT Oliveira, MAL Marques          : LibXC Library
   Liviu Ungur et al                             : ANISO software


 Your calculation uses the libint2 library for the computation of 2-el integrals
 For citations please refer to: http://libint.valeyev.net

 Your ORCA version has been built with support for libXC version: 5.1.0
 For citations please refer to: https://tddft.org/programs/libxc/

 This ORCA versions uses:
   CBLAS   interface :  Fast vector & matrix operations
   LAPACKE interface :  Fast linear algebra routines
   Shared memory     :  Shared parallel matrices


XCFun DFT library Copyright 2009-2010 Ulf Ekstrom and contributors.
See http://admol.org/xcfun for more information.
This is free software; see the source code for copying conditions.
There is ABSOLUTELY NO WARRANTY; not even for MERCHANTABILITY or FITNESS FOR A PARTICULAR PURPOSE.
For details see the documentation.
Scientific users of this library should cite U. Ekstrom, L. Visscher, R. Bast, A. J. Thorvaldsen and K. Ruud;
J.Chem.Theor.Comp. 2010, DOI: 10.1021/ct100117s
XCFun Version 0.99 

================================================================================

----- Orbital basis set information -----
Your calculation utilizes the basis: def2-TZVP
   F. Weigend and R. Ahlrichs, Phys. Chem. Chem. Phys. 7, 3297 (2005).

----- AuxJ basis set information -----
Your calculation utilizes the auxiliary basis: def2/J
   F. Weigend, Phys. Chem. Chem. Phys. 8, 1057 (2006).

================================================================================
                                        WARNINGS
                       Please study these warnings very carefully!
================================================================================


WARNING: Geometry Optimization
  ===> : Switching off AutoStart
         For restart on a previous wavefunction, please use MOREAD

WARNING: Minnesota functionals are quite sensitive to the integration grid.
         see SE Wheeler, KN Houk, JCTC 2010, 6, 395,
             N Mardirossian, M Head-Gordon, JCTC 2016, 12, 4303.
         DEFGRID3 seems to be a minimum grid for reliable results with these functionals!
  ===> : Please increase the integration grid!


INFO   : the flag for use of the SHARK integral package has been found!

================================================================================
                                       INPUT FILE
================================================================================
NAME = eight_nine.inp
|  1> !M062X def2-tzvp PAL4 TIGHTOPT FREQ
|  2> 
|  3> %freq
|  4> Temp 298.15,10,20,50,100,6000,8000,10000
|  5> end
|  6> 
|  7> %geom
|  8> maxiter 5000
|  9> end
| 10> 
| 11> 
| 12> 
| 13> 
| 14> 
| 15> * xyz 0 1
| 16>   C   2.45791983499341     -2.80268931379768     -0.00000793519644
| 17>   C   1.28608761308438     -3.49706883370209     -0.00003643606214
| 18>   C   0.03470547919465     -2.82650100714450     -0.00011895547508
| 19>   C   -1.19909611030651     -3.52926406052669     -0.00014738304165
| 20>   C   -2.38727532547159     -2.86387815648029     -0.00022974228995
| 21>   C   -2.43307513493588     -1.44447575303296     -0.00027036473986
| 22>   C   -3.65942351028343     -0.73056692575933     -0.00034869983218
| 23>   C   -3.68143184744779      0.63183680863156     -0.00038756598292
| 24>   C   -2.47654311552349      1.38171086633990     -0.00035715694906
| 25>   C   -2.47435650264592      2.81046534061019     -0.00039831731937
| 26>   C   -1.28561443050281      3.43802142880253     -0.00036151343355
| 27>   C   -0.02057223287027      2.83388218261706     -0.00029010794623
| 28>   C   1.21086686736911      3.53893902602452     -0.00025402239824
| 29>   C   2.39489324957599      2.86551829309080     -0.00018393811888
| 30>   C   2.43517090494280      1.44582754720977     -0.00014049013964
| 31>   C   3.65975900430544      0.72697243056351     -0.00006992784603
| 32>   C   3.67546036802878     -0.63516446298208     -0.00002698908555
| 33>   C   2.46811813995863     -1.38295180399054     -0.00005240219282
| 34>   C   1.24061543792698     -0.69496199420878     -0.00012711748511
| 35>   C   1.22474219035332      0.72698621586077     -0.00017741356338
| 36>   C   -0.01566516709535      1.42103164152461     -0.00024506128700
| 37>   C   -1.24356348643455      0.69923344199718     -0.00028346088976
| 38>   C   -1.22400277498297     -0.72338676000015     -0.00023734960533
| 39>   C   0.01693487392421     -1.41913103104816     -0.00016297130775
| 40>   H   3.40501735040542     -3.32906588787472      0.00005627444163
| 41>   H   1.29296308352502     -4.58060438188898      0.00000142672494
| 42>   H   -1.17896310310274     -4.61257131284734     -0.00011513591155
| 43>   H   -3.32129405982821     -3.41317602901623     -0.00025227227744
| 44>   H   -4.58586789409211     -1.29266910376159     -0.00037146429946
| 45>   H   -4.62408845924854      1.16575491725399     -0.00044556872067
| 46>   H   -3.41518424261775      3.34878172120577     -0.00045725814046
| 47>   H   3.33130215861300      3.41052642430950     -0.00015763965944
| 48>   H   4.58800492413600      1.28586263822177     -0.00004835142171
| 49>   H   4.61660270482137     -1.17213723898180      0.00002811587814
| 50>   **                         ****END OF INPUT****
================================================================================

                       *****************************
                       * Geometry Optimization Run *
                       *****************************

Geometry optimization settings:
Update method            Update   .... BFGS
Choice of coordinates    CoordSys .... Z-matrix Internals
Initial Hessian          InHess   .... Almoef's Model

Convergence Tolerances:
Energy Change            TolE     ....  1.0000e-06 Eh
Max. Gradient            TolMAXG  ....  1.0000e-04 Eh/bohr
RMS Gradient             TolRMSG  ....  3.0000e-05 Eh/bohr
Max. Displacement        TolMAXD  ....  1.0000e-03 bohr
RMS Displacement         TolRMSD  ....  6.0000e-04 bohr
Strict Convergence                ....  False
------------------------------------------------------------------------------
                        ORCA OPTIMIZATION COORDINATE SETUP
------------------------------------------------------------------------------

The optimization will be done in new redundant internal coordinates
Making redundant internal coordinates   ...  (new redundants) done
Evaluating the initial hessian          ...  (Almloef) done
Evaluating the coordinates              ...  done
Calculating the B-matrix                .... done
Calculating the G-matrix                .... done
Diagonalizing the G-matrix              .... done
The first mode is                       ....  124
The number of degrees of freedom        ....   96

    -----------------------------------------------------------------
                    Redundant Internal Coordinates


    -----------------------------------------------------------------
         Definition                    Initial Value    Approx d2E/dq
    -----------------------------------------------------------------
      1. B(C   1,C   0)                  1.3621         0.692196   
      2. B(C   2,C   1)                  1.4197         0.560163   
      3. B(C   3,C   2)                  1.4199         0.559784   
      4. B(C   4,C   3)                  1.3618         0.692986   
      5. B(C   5,C   4)                  1.4201         0.559307   
      6. B(C   6,C   5)                  1.4190         0.561631   
      7. B(C   7,C   6)                  1.3626         0.691008   
      8. B(C   8,C   7)                  1.4192         0.561288   
      9. B(C   9,C   8)                  1.4288         0.541883   
     10. B(C  10,C   9)                  1.3442         0.739220   
     11. B(C  11,C  10)                  1.4019         0.598077   
     12. B(C  12,C  11)                  1.4190         0.561667   
     13. B(C  13,C  12)                  1.3621         0.692140   
     14. B(C  14,C  13)                  1.4203         0.559059   
     15. B(C  15,C  14)                  1.4200         0.559620   
     16. B(C  16,C  15)                  1.3622         0.691907   
     17. B(C  17,C  16)                  1.4202         0.559263   
     18. B(C  17,C   0)                  1.4198         0.560062   
     19. B(C  18,C  17)                  1.4072         0.586630   
     20. B(C  19,C  18)                  1.4220         0.555426   
     21. B(C  19,C  14)                  1.4078         0.585271   
     22. B(C  20,C  19)                  1.4214         0.556776   
     23. B(C  20,C  11)                  1.4129         0.574471   
     24. B(C  21,C  20)                  1.4243         0.550758   
     25. B(C  21,C   8)                  1.4093         0.582117   
     26. B(C  22,C  21)                  1.4228         0.553963   
     27. B(C  22,C   5)                  1.4078         0.585305   
     28. B(C  23,C  22)                  1.4227         0.554138   
     29. B(C  23,C  18)                  1.4219         0.555694   
     30. B(C  23,C   2)                  1.4075         0.585932   
     31. B(H  24,C   0)                  1.0835         0.368744   
     32. B(H  25,C   1)                  1.0836         0.368724   
     33. B(H  26,C   3)                  1.0835         0.368810   
     34. B(H  27,C   4)                  1.0836         0.368710   
     35. B(H  28,C   6)                  1.0836         0.368624   
     36. B(H  29,C   7)                  1.0834         0.368991   
     37. B(H  30,C   9)                  1.0839         0.368197   
     38. B(H  31,C  13)                  1.0835         0.368850   
     39. B(H  32,C  15)                  1.0835         0.368786   
     40. B(H  33,C  16)                  1.0836         0.368729   
     41. A(C   1,C   0,C  17)          121.0608         0.434729   
     42. A(C   1,C   0,H  24)          120.2864         0.361028   
     43. A(C  17,C   0,H  24)          118.6528         0.348293   
     44. A(C   2,C   1,H  25)          118.5487         0.348301   
     45. A(C   0,C   1,C   2)          121.1656         0.434743   
     46. A(C   0,C   1,H  25)          120.2857         0.361025   
     47. A(C   1,C   2,C  23)          118.9086         0.421943   
     48. A(C   3,C   2,C  23)          118.9421         0.421892   
     49. A(C   1,C   2,C   3)          122.1494         0.418521   
     50. A(C   2,C   3,H  26)          118.6008         0.348275   
     51. A(C   4,C   3,H  26)          120.3137         0.361109   
     52. A(C   2,C   3,C   4)          121.0855         0.434779   
     53. A(C   5,C   4,H  27)          118.6117         0.348209   
     54. A(C   3,C   4,H  27)          120.2911         0.361092   
     55. A(C   3,C   4,C   5)          121.0971         0.434712   
     56. A(C   6,C   5,C  22)          118.9827         0.422060   
     57. A(C   4,C   5,C   6)          122.0536         0.418653   
     58. A(C   4,C   5,C  22)          118.9637         0.421748   
     59. A(C   5,C   6,H  28)          118.5480         0.348439   
     60. A(C   5,C   6,C   7)          121.1310         0.434813   
     61. A(C   7,C   6,H  28)          120.3210         0.360902   
     62. A(C   6,C   7,C   8)          120.9710         0.434765   
     63. A(C   6,C   7,H  29)          120.4526         0.360963   
     64. A(C   8,C   7,H  29)          118.5764         0.348461   
     65. A(C   7,C   8,C   9)          121.9842         0.416254   
     66. A(C   9,C   8,C  21)          118.8777         0.418964   
     67. A(C   7,C   8,C  21)          119.1382         0.421603   
     68. A(C   8,C   9,H  30)          119.6893         0.346278   
     69. A(C   8,C   9,C  10)          117.9180         0.437299   
     70. A(C  10,C   9,H  30)          122.3927         0.365012   
     71. A(C   9,C  10,C  11)          126.6422         0.445165   
     72. A(C  12,C  11,C  20)          119.5942         0.420659   
     73. A(C  10,C  11,C  20)          115.7265         0.425408   
     74. A(C  10,C  11,C  12)          124.6793         0.423696   
     75. A(C  11,C  12,C  13)          120.5776         0.434946   
     76. A(C  12,C  13,H  31)          120.1705         0.361040   
     77. A(C  12,C  13,C  14)          121.2544         0.434582   
     78. A(C  14,C  13,H  31)          118.5751         0.348205   
     79. A(C  13,C  14,C  15)          122.0388         0.418352   
     80. A(C  15,C  14,C  19)          118.8814         0.421785   
     81. A(C  13,C  14,C  19)          119.0799         0.421710   
     82. A(C  14,C  15,C  16)          121.0741         0.434634   
     83. A(C  16,C  15,H  32)          120.3914         0.361009   
     84. A(C  14,C  15,H  32)          118.5345         0.348254   
     85. A(C  17,C  16,H  33)          118.5202         0.348208   
     86. A(C  15,C  16,C  17)          121.1123         0.434585   
     87. A(C  15,C  16,H  33)          120.3675         0.361000   
     88. A(C  16,C  17,C  18)          118.9576         0.421912   
     89. A(C   0,C  17,C  18)          118.8582         0.422020   
     90. A(C   0,C  17,C  16)          122.1842         0.418438   
     91. A(C  17,C  18,C  19)          119.9093         0.421394   
     92. A(C  19,C  18,C  23)          119.9773         0.417343   
     93. A(C  17,C  18,C  23)          120.1134         0.421430   
     94. A(C  18,C  19,C  20)          119.8679         0.417487   
     95. A(C  14,C  19,C  20)          120.0667         0.421402   
     96. A(C  14,C  19,C  18)          120.0654         0.421219   
     97. A(C  11,C  20,C  19)          119.4273         0.420004   
     98. A(C  19,C  20,C  21)          120.3233         0.416860   
     99. A(C  11,C  20,C  21)          120.2494         0.419190   
    100. A(C  20,C  21,C  22)          119.6606         0.416485   
    101. A(C   8,C  21,C  22)          119.7531         0.420615   
    102. A(C   8,C  21,C  20)          120.5863         0.420180   
    103. A(C  21,C  22,C  23)          120.0654         0.416938   
    104. A(C   5,C  22,C  23)          119.9106         0.421049   
    105. A(C   5,C  22,C  21)          120.0240         0.421025   
    106. A(C  18,C  23,C  22)          120.1055         0.417170   
    107. A(C   2,C  23,C  22)          120.0010         0.421129   
    108. A(C   2,C  23,C  18)          119.8934         0.421340   
    109. D(C   2,C   1,C   0,C  17)      0.0003         0.033683   
    110. D(H  25,C   1,C   0,C  17)   -179.9998         0.033683   
    111. D(H  25,C   1,C   0,H  24)     -0.0002         0.033683   
    112. D(C   2,C   1,C   0,H  24)    179.9999         0.033683   
    113. D(C   3,C   2,C   1,C   0)   -179.9999         0.021494   
    114. D(C  23,C   2,C   1,C   0)     -0.0004         0.021494   
    115. D(C  23,C   2,C   1,H  25)    179.9997         0.021494   
    116. D(C   3,C   2,C   1,H  25)      0.0003         0.021494   
    117. D(H  26,C   3,C   2,C  23)    179.9999         0.021464   
    118. D(H  26,C   3,C   2,C   1)     -0.0006         0.021464   
    119. D(C   4,C   3,C   2,C   1)   -179.9999         0.021464   
    120. D(C   4,C   3,C   2,C  23)      0.0007         0.021464   
    121. D(H  27,C   4,C   3,C   2)    179.9999         0.033766   
    122. D(H  27,C   4,C   3,H  26)      0.0007         0.033766   
    123. D(C   5,C   4,C   3,H  26)    179.9999         0.033766   
    124. D(C   5,C   4,C   3,C   2)     -0.0009         0.033766   
    125. D(C  22,C   5,C   4,H  27)    179.9998         0.021426   
    126. D(C   6,C   5,C   4,H  27)     -0.0005         0.021426   
    127. D(C  22,C   5,C   4,C   3)      0.0006         0.021426   
    128. D(C   6,C   5,C   4,C   3)   -179.9996         0.021426   
    129. D(H  28,C   6,C   5,C  22)   -179.9999         0.021611   
    130. D(C   7,C   6,C   5,C  22)     -0.0002         0.021611   
    131. D(H  28,C   6,C   5,C   4)      0.0004         0.021611   
    132. D(C   7,C   6,C   5,C   4)   -180.0000         0.021611   
    133. D(H  29,C   7,C   6,H  28)     -0.0002         0.033558   
    134. D(H  29,C   7,C   6,C   5)   -179.9999         0.033558   
    135. D(C   8,C   7,C   6,H  28)    179.9999         0.033558   
    136. D(C   8,C   7,C   6,C   5)      0.0003         0.033558   
    137. D(C  21,C   8,C   7,C   6)     -0.0001         0.021584   
    138. D(C   9,C   8,C   7,H  29)      0.0001         0.021584   
    139. D(C   9,C   8,C   7,C   6)    179.9999         0.021584   
    140. D(C  21,C   8,C   7,H  29)   -179.9999         0.021584   
    141. D(H  30,C   9,C   8,C  21)    179.9999         0.020068   
    142. D(H  30,C   9,C   8,C   7)     -0.0002         0.020068   
    143. D(C  10,C   9,C   8,C  21)     -0.0001         0.020068   
    144. D(C  10,C   9,C   8,C   7)    179.9998         0.020068   
    145. D(C  11,C  10,C   9,H  30)   -179.9998         0.035175   
    146. D(C  11,C  10,C   9,C   8)      0.0002         0.035175   
    147. D(C  20,C  11,C  10,C   9)     -0.0004         0.022365   
    148. D(C  12,C  11,C  10,C   9)    180.0000         0.022365   
    149. D(C  13,C  12,C  11,C  20)      0.0004         0.019629   
    150. D(C  13,C  12,C  11,C  10)    180.0000         0.019629   
    151. D(H  31,C  13,C  12,C  11)    179.9999         0.030501   
    152. D(C  14,C  13,C  12,C  11)     -0.0002         0.030501   
    153. D(C  19,C  14,C  13,H  31)   -179.9998         0.021406   
    154. D(C  19,C  14,C  13,C  12)      0.0003         0.021406   
    155. D(C  15,C  14,C  13,H  31)     -0.0003         0.021406   
    156. D(C  15,C  14,C  13,C  12)    179.9999         0.021406   
    157. D(H  32,C  15,C  14,C  19)    179.9996         0.021451   
    158. D(H  32,C  15,C  14,C  13)      0.0000         0.021451   
    159. D(C  16,C  15,C  14,C  19)     -0.0005         0.021451   
    160. D(C  16,C  15,C  14,C  13)    179.9999         0.021451   
    161. D(H  33,C  16,C  15,H  32)     -0.0001         0.033652   
    162. D(C  17,C  16,C  15,H  32)    179.9999         0.033652   
    163. D(C  17,C  16,C  15,C  14)      0.0001         0.033652   
    164. D(H  33,C  16,C  15,C  14)   -179.9999         0.033652   
    165. D(C   0,C  17,C  16,H  33)      0.0000         0.021423   
    166. D(C   0,C  17,C  16,C  15)   -180.0000         0.021423   
    167. D(C  18,C  17,C   0,H  24)   -179.9996         0.021486   
    168. D(C  18,C  17,C   0,C   1)     -0.0000         0.021486   
    169. D(C  16,C  17,C   0,H  24)      0.0005         0.021486   
    170. D(C  18,C  17,C  16,C  15)      0.0002         0.021423   
    171. D(C  16,C  17,C   0,C   1)   -179.9999         0.021486   
    172. D(C  18,C  17,C  16,H  33)   -179.9998         0.021423   
    173. D(C  23,C  18,C  17,C  16)    179.9996         0.023669   
    174. D(C  23,C  18,C  17,C   0)     -0.0003         0.023669   
    175. D(C  19,C  18,C  17,C  16)      0.0001         0.023669   
    176. D(C  19,C  18,C  17,C   0)   -179.9998         0.023669   
    177. D(C  20,C  19,C  18,C  23)      0.0009         0.021119   
    178. D(C  20,C  19,C  18,C  17)   -179.9996         0.021119   
    179. D(C  14,C  19,C  18,C  23)    179.9999         0.021119   
    180. D(C  14,C  19,C  18,C  17)     -0.0006         0.021119   
    181. D(C  20,C  19,C  14,C  15)    179.9999         0.023554   
    182. D(C  20,C  19,C  14,C  13)     -0.0006         0.023554   
    183. D(C  18,C  19,C  14,C  15)      0.0008         0.023554   
    184. D(C  18,C  19,C  14,C  13)   -179.9996         0.023554   
    185. D(C  21,C  20,C  19,C  18)     -0.0010         0.021225   
    186. D(C  21,C  20,C  19,C  14)    180.0000         0.021225   
    187. D(C  11,C  20,C  19,C  18)    179.9998         0.021225   
    188. D(C  11,C  20,C  19,C  14)      0.0007         0.021225   
    189. D(C  21,C  20,C  11,C  12)   -179.9999         0.022654   
    190. D(C  21,C  20,C  11,C  10)      0.0005         0.022654   
    191. D(C  19,C  20,C  11,C  12)     -0.0006         0.022654   
    192. D(C  19,C  20,C  11,C  10)    179.9997         0.022654   
    193. D(C  22,C  21,C  20,C  19)      0.0008         0.020753   
    194. D(C  22,C  21,C  20,C  11)   -180.0000         0.020753   
    195. D(C   8,C  21,C  20,C  19)   -179.9997         0.020753   
    196. D(C   8,C  21,C  20,C  11)     -0.0004         0.020753   
    197. D(C  22,C  21,C   8,C   9)    179.9998         0.023289   
    198. D(C  22,C  21,C   8,C   7)     -0.0002         0.023289   
    199. D(C  20,C  21,C   8,C   9)      0.0003         0.023289   
    200. D(C  20,C  21,C   8,C   7)   -179.9997         0.023289   
    201. D(C  23,C  22,C  21,C  20)     -0.0004         0.021004   
    202. D(C  23,C  22,C  21,C   8)    180.0000         0.021004   
    203. D(C   5,C  22,C  21,C  20)    179.9998         0.021004   
    204. D(C   5,C  22,C  21,C   8)      0.0002         0.021004   
    205. D(C  23,C  22,C   5,C   6)   -179.9998         0.023557   
    206. D(C  23,C  22,C   5,C   4)     -0.0001         0.023557   
    207. D(C  21,C  22,C   5,C   6)     -0.0000         0.023557   
    208. D(C  21,C  22,C   5,C   4)    179.9997         0.023557   
    209. D(C  18,C  23,C  22,C  21)      0.0003         0.021017   
    210. D(C   2,C  23,C  22,C  21)   -179.9999         0.021017   
    211. D(C   2,C  23,C  22,C   5)     -0.0002         0.021017   
    212. D(C  22,C  23,C  18,C  19)     -0.0005         0.021140   
    213. D(C  22,C  23,C  18,C  17)    179.9999         0.021140   
    214. D(C   2,C  23,C  18,C  19)    179.9997         0.021140   
    215. D(C   2,C  23,C  18,C  17)      0.0002         0.021140   
    216. D(C  22,C  23,C   2,C   3)     -0.0001         0.023610   
    217. D(C  22,C  23,C   2,C   1)   -179.9996         0.023610   
    218. D(C  18,C  23,C  22,C   5)   -179.9999         0.021017   
    219. D(C  18,C  23,C   2,C   3)    179.9996         0.023610   
    220. D(C  18,C  23,C   2,C   1)      0.0001         0.023610   
    -----------------------------------------------------------------

Number of atoms                         .... 34
Number of degrees of freedom            .... 220

         *************************************************************
         *                GEOMETRY OPTIMIZATION CYCLE   1            *
         *************************************************************
---------------------------------
CARTESIAN COORDINATES (ANGSTROEM)
---------------------------------
  C      2.457920   -2.802689   -0.000008
  C      1.286088   -3.497069   -0.000036
  C      0.034705   -2.826501   -0.000119
  C     -1.199096   -3.529264   -0.000147
  C     -2.387275   -2.863878   -0.000230
  C     -2.433075   -1.444476   -0.000270
  C     -3.659424   -0.730567   -0.000349
  C     -3.681432    0.631837   -0.000388
  C     -2.476543    1.381711   -0.000357
  C     -2.474357    2.810465   -0.000398
  C     -1.285614    3.438021   -0.000362
  C     -0.020572    2.833882   -0.000290
  C      1.210867    3.538939   -0.000254
  C      2.394893    2.865518   -0.000184
  C      2.435171    1.445828   -0.000140
  C      3.659759    0.726972   -0.000070
  C      3.675460   -0.635164   -0.000027
  C      2.468118   -1.382952   -0.000052
  C      1.240615   -0.694962   -0.000127
  C      1.224742    0.726986   -0.000177
  C     -0.015665    1.421032   -0.000245
  C     -1.243563    0.699233   -0.000283
  C     -1.224003   -0.723387   -0.000237
  C      0.016935   -1.419131   -0.000163
  H      3.405017   -3.329066    0.000056
  H      1.292963   -4.580604    0.000001
  H     -1.178963   -4.612571   -0.000115
  H     -3.321294   -3.413176   -0.000252
  H     -4.585868   -1.292669   -0.000371
  H     -4.624088    1.165755   -0.000446
  H     -3.415184    3.348782   -0.000457
  H      3.331302    3.410526   -0.000158
  H      4.588005    1.285863   -0.000048
  H      4.616603   -1.172137    0.000028

----------------------------
CARTESIAN COORDINATES (A.U.)
----------------------------
  NO LB      ZA    FRAG     MASS         X           Y           Z
   0 C     6.0000    0    12.011    4.644795   -5.296315   -0.000015
   1 C     6.0000    0    12.011    2.430353   -6.608502   -0.000069
   2 C     6.0000    0    12.011    0.065584   -5.341313   -0.000225
   3 C     6.0000    0    12.011   -2.265963   -6.669343   -0.000279
   4 C     6.0000    0    12.011   -4.511297   -5.411945   -0.000434
   5 C     6.0000    0    12.011   -4.597846   -2.729664   -0.000511
   6 C     6.0000    0    12.011   -6.915308   -1.380571   -0.000659
   7 C     6.0000    0    12.011   -6.956898    1.193999   -0.000732
   8 C     6.0000    0    12.011   -4.679988    2.611055   -0.000675
   9 C     6.0000    0    12.011   -4.675856    5.311010   -0.000753
  10 C     6.0000    0    12.011   -2.429459    6.496919   -0.000683
  11 C     6.0000    0    12.011   -0.038876    5.355261   -0.000548
  12 C     6.0000    0    12.011    2.288207    6.687626   -0.000480
  13 C     6.0000    0    12.011    4.525692    5.415045   -0.000348
  14 C     6.0000    0    12.011    4.601806    2.732218   -0.000265
  15 C     6.0000    0    12.011    6.915942    1.373779   -0.000132
  16 C     6.0000    0    12.011    6.945614   -1.200287   -0.000051
  17 C     6.0000    0    12.011    4.664067   -2.613400   -0.000099
  18 C     6.0000    0    12.011    2.344423   -1.313288   -0.000240
  19 C     6.0000    0    12.011    2.314427    1.373805   -0.000335
  20 C     6.0000    0    12.011   -0.029603    2.685361   -0.000463
  21 C     6.0000    0    12.011   -2.349994    1.321360   -0.000536
  22 C     6.0000    0    12.011   -2.313030   -1.367003   -0.000449
  23 C     6.0000    0    12.011    0.032002   -2.681769   -0.000308
  24 H     1.0000    0     1.008    6.434550   -6.291023    0.000106
  25 H     1.0000    0     1.008    2.443346   -8.656088    0.000003
  26 H     1.0000    0     1.008   -2.227917   -8.716497   -0.000218
  27 H     1.0000    0     1.008   -6.276336   -6.449968   -0.000477
  28 H     1.0000    0     1.008   -8.666034   -2.442791   -0.000702
  29 H     1.0000    0     1.008   -8.738261    2.202958   -0.000842
  30 H     1.0000    0     1.008   -6.453763    6.328280   -0.000864
  31 H     1.0000    0     1.008    6.295249    6.444961   -0.000298
  32 H     1.0000    0     1.008    8.670073    2.429928   -0.000091
  33 H     1.0000    0     1.008    8.724115   -2.215018    0.000053

--------------------------------
INTERNAL COORDINATES (ANGSTROEM)
--------------------------------
 C      0   0   0     0.000000000000     0.00000000     0.00000000
 C      1   0   0     1.362113679096     0.00000000     0.00000000
 C      2   1   0     1.419724783837   121.16560922     0.00000000
 C      3   2   1     1.419909247897   122.14936829   180.00012514
 C      4   3   2     1.361803310114   121.08549338   180.00014219
 C      5   4   3     1.420141122251   121.09714964     0.00000000
 C      6   5   4     1.419012388076   122.05359964   180.00035250
 C      7   6   5     1.362581485232   121.13095823   180.00004575
 C      8   7   6     1.419178621480   120.97098694     0.00000000
 C      9   8   7     1.428756148094   121.98415257   179.99993018
 C     10   9   8     1.344222585462   117.91798224   179.99982824
 C     11  10   9     1.401897284280   126.64222024     0.00000000
 C     12  11  10     1.418995211879   124.67934702   179.99996824
 C     13  12  11     1.362135809022   120.57756794   179.99997748
 C     14  13  12     1.420261984758   121.25435076     0.00000000
 C     15  14  13     1.419988977707   122.03878309   179.99987718
 C     16  15  14     1.362227386094   121.07411591   179.99989307
 C      1   2   3     1.419774138430   121.06079764     0.00000000
 C     18   1   2     1.407157726568   118.85816447     0.00000000
 C     15  14  13     1.407789236399   119.07985977     0.00000000
 C     12  11  10     1.412859063314   115.72648181     0.00000000
 C      9   8   7     1.409260162609   119.13818147     0.00000000
 C      6   5   4     1.407773173691   118.96366889     0.00000000
 C      3   2   1     1.407482165417   118.90857994     0.00000000
 H      1   2   3     1.083543264277   120.28639352   179.99993510
 H      2   1   3     1.083557362447   120.28567582   179.99985180
 H      4   3   2     1.083494320220   118.60077089     0.00000000
 H      5   4   3     1.083567787178   120.29111832   179.99989480
 H      7   6   5     1.083631881832   118.54804936     0.00000000
 H      8   7   6     1.083360529949   120.45257468   180.00011038
 H     10   9   8     1.083947122969   119.68934415     0.00000000
 H     14  13  12     1.083464585813   120.17050164   179.99994437
 H     16  15  14     1.083512229910   118.53445959     0.00000000
 H     17  16  15     1.083553719621   120.36752368   180.00008314

---------------------------
INTERNAL COORDINATES (A.U.)
---------------------------
 C      0   0   0     0.000000000000     0.00000000     0.00000000
 C      1   0   0     2.574021816758     0.00000000     0.00000000
 C      2   1   0     2.682891026993   121.16560922     0.00000000
 C      3   2   1     2.683239613547   122.14936829   180.00012514
 C      4   3   2     2.573435304383   121.08549338   180.00014219
 C      5   4   3     2.683677792575   121.09714964     0.00000000
 C      6   5   4     2.681544794105   122.05359964   180.00035250
 C      7   6   5     2.574905842241   121.13095823   180.00004575
 C      8   7   6     2.681858929714   120.97098694     0.00000000
 C      9   8   7     2.699957832055   121.98415257   179.99993018
 C     10   9   8     2.540212549554   117.91798224   179.99982824
 C     11  10   9     2.649201935177   126.64222024     0.00000000
 C     12  11  10     2.681512335797   124.67934702   179.99996824
 C     13  12  11     2.574063636258   120.57756794   179.99997748
 C     14  13  12     2.683906189613   121.25435076     0.00000000
 C     15  14  13     2.683390281052   122.03878309   179.99987718
 C     16  15  14     2.574236691845   121.07411591   179.99989307
 C      1   2   3     2.682984293657   121.06079764     0.00000000
 C     18   1   2     2.659142730445   118.85816447     0.00000000
 C     15  14  13     2.660336111077   119.07985977     0.00000000
 C     12  11  10     2.669916695492   115.72648181     0.00000000
 C      9   8   7     2.663115758776   119.13818147     0.00000000
 C      6   5   4     2.660305756958   118.96366889     0.00000000
 C      3   2   1     2.659755831016   118.90857994     0.00000000
 H      1   2   3     2.047600023738   120.28639352   179.99993510
 H      2   1   3     2.047626665418   120.28567582   179.99985180
 H      4   3   2     2.047507532875   118.60077089     0.00000000
 H      5   4   3     2.047646365305   120.29111832   179.99989480
 H      7   6   5     2.047767486649   118.54804936     0.00000000
 H      8   7   6     2.047254705903   120.45257468   180.00011038
 H     10   9   8     2.048363206063   119.68934415     0.00000000
 H     14  13  12     2.047451342988   120.17050164   179.99994437
 H     16  15  14     2.047541377284   118.53445959     0.00000000
 H     17  16  15     2.047619781476   120.36752368   180.00008314

---------------------
BASIS SET INFORMATION
---------------------
There are 2 groups of distinct atoms

 Group   1 Type C   : 11s6p2d1f contracted to 5s3p2d1f pattern {62111/411/11/1}
 Group   2 Type H   : 5s1p contracted to 3s1p pattern {311/1}

Atom   0C    basis set group =>   1
Atom   1C    basis set group =>   1
Atom   2C    basis set group =>   1
Atom   3C    basis set group =>   1
Atom   4C    basis set group =>   1
Atom   5C    basis set group =>   1
Atom   6C    basis set group =>   1
Atom   7C    basis set group =>   1
Atom   8C    basis set group =>   1
Atom   9C    basis set group =>   1
Atom  10C    basis set group =>   1
Atom  11C    basis set group =>   1
Atom  12C    basis set group =>   1
Atom  13C    basis set group =>   1
Atom  14C    basis set group =>   1
Atom  15C    basis set group =>   1
Atom  16C    basis set group =>   1
Atom  17C    basis set group =>   1
Atom  18C    basis set group =>   1
Atom  19C    basis set group =>   1
Atom  20C    basis set group =>   1
Atom  21C    basis set group =>   1
Atom  22C    basis set group =>   1
Atom  23C    basis set group =>   1
Atom  24H    basis set group =>   2
Atom  25H    basis set group =>   2
Atom  26H    basis set group =>   2
Atom  27H    basis set group =>   2
Atom  28H    basis set group =>   2
Atom  29H    basis set group =>   2
Atom  30H    basis set group =>   2
Atom  31H    basis set group =>   2
Atom  32H    basis set group =>   2
Atom  33H    basis set group =>   2
---------------------------------
AUXILIARY/J BASIS SET INFORMATION
---------------------------------
There are 2 groups of distinct atoms

 Group   1 Type C   : 12s5p4d2f1g contracted to 6s4p3d1f1g pattern {711111/2111/211/2/1}
 Group   2 Type H   : 5s2p1d contracted to 3s1p1d pattern {311/2/1}

Atom   0C    basis set group =>   1
Atom   1C    basis set group =>   1
Atom   2C    basis set group =>   1
Atom   3C    basis set group =>   1
Atom   4C    basis set group =>   1
Atom   5C    basis set group =>   1
Atom   6C    basis set group =>   1
Atom   7C    basis set group =>   1
Atom   8C    basis set group =>   1
Atom   9C    basis set group =>   1
Atom  10C    basis set group =>   1
Atom  11C    basis set group =>   1
Atom  12C    basis set group =>   1
Atom  13C    basis set group =>   1
Atom  14C    basis set group =>   1
Atom  15C    basis set group =>   1
Atom  16C    basis set group =>   1
Atom  17C    basis set group =>   1
Atom  18C    basis set group =>   1
Atom  19C    basis set group =>   1
Atom  20C    basis set group =>   1
Atom  21C    basis set group =>   1
Atom  22C    basis set group =>   1
Atom  23C    basis set group =>   1
Atom  24H    basis set group =>   2
Atom  25H    basis set group =>   2
Atom  26H    basis set group =>   2
Atom  27H    basis set group =>   2
Atom  28H    basis set group =>   2
Atom  29H    basis set group =>   2
Atom  30H    basis set group =>   2
Atom  31H    basis set group =>   2
Atom  32H    basis set group =>   2
Atom  33H    basis set group =>   2


           ************************************************************
           *        Program running with 4 parallel MPI-processes     *
           *              working on a common directory               *
           ************************************************************
------------------------------------------------------------------------------
                           ORCA GTO INTEGRAL CALCULATION
                           -- RI-GTO INTEGRALS CHOSEN --
------------------------------------------------------------------------------
------------------------------------------------------------------------------
                   ___                                                        
                  /   \      - P O W E R E D   B Y -                         
                 /     \                                                     
                 |  |  |   _    _      __       _____    __    __             
                 |  |  |  | |  | |    /  \     |  _  \  |  |  /  |          
                  \  \/   | |  | |   /    \    | | | |  |  | /  /          
                 / \  \   | |__| |  /  /\  \   | |_| |  |  |/  /          
                |  |  |   |  __  | /  /__\  \  |    /   |      \           
                |  |  |   | |  | | |   __   |  |    \   |  |\   \          
                \     /   | |  | | |  |  |  |  | |\  \  |  | \   \       
                 \___/    |_|  |_| |__|  |__|  |_| \__\ |__|  \__/        
                                                                              
                      - O R C A' S   B I G   F R I E N D -                    
                                      &                                       
                       - I N T E G R A L  F E E D E R -                       
                                                                              
 v1 FN, 2020, v2 2021                                                         
------------------------------------------------------------------------------


Reading SHARK input file eight_nine.SHARKINP.tmp ... ok
----------------------
SHARK INTEGRAL PACKAGE
----------------------

Number of atoms                             ...     34
Number of basis functions                   ...    804
Number of shells                            ...    304
Maximum angular momentum                    ...      3
Integral batch strategy                     ... SHARK/LIBINT Hybrid
RI-J (if used) integral strategy            ... SPLIT-RIJ (Revised 2003 algorithm where possible)
Printlevel                                  ...      1
Contraction scheme used                     ... SEGMENTED contraction
Coulomb Range Separation                    ... NOT USED
Exchange Range Separation                   ... NOT USED
Finite Nucleus Model                        ... NOT USED
Auxiliary Coulomb fitting basis             ... AVAILABLE
   # of basis functions in Aux-J            ...   1286
   # of shells in Aux-J                     ...    410
   Maximum angular momentum in Aux-J        ...      4
Auxiliary J/K fitting basis                 ... NOT available
Auxiliary Correlation fitting basis         ... NOT available
Auxiliary 'external' fitting basis          ... NOT available
Integral threshold                          ...     2.500000e-11
Primitive cut-off                           ...     2.500000e-12
Primitive pair pre-selection threshold      ...     2.500000e-12

Calculating pre-screening integrals         ... done (  0.2 sec) Dimension = 304
Organizing shell pair data                  ... done (  0.9 sec)
Shell pair information
Total number of shell pairs                 ...     46360
Shell pairs after pre-screening             ...     35752
Total number of primitive shell pairs       ...    146628
Primitive shell pairs kept                  ...     75615
          la=0 lb=0:   8087 shell pairs
          la=1 lb=0:   9825 shell pairs
          la=1 lb=1:   2942 shell pairs
          la=2 lb=0:   5414 shell pairs
          la=2 lb=1:   3293 shell pairs
          la=2 lb=2:    929 shell pairs
          la=3 lb=0:   2542 shell pairs
          la=3 lb=1:   1589 shell pairs
          la=3 lb=2:    894 shell pairs
          la=3 lb=3:    237 shell pairs

Calculating one electron integrals          ... done (  0.1 sec)
Calculating RI/J V-Matrix + Cholesky decomp.... done (  0.1 sec)
Calculating Nuclear repulsion               ... done (  0.0 sec) ENN=   1801.015665536662 Eh

SHARK setup successfully completed in   4.1 seconds

Maximum memory used throughout the entire GTOINT-calculation: 52.5 MB


           ************************************************************
           *        Program running with 4 parallel MPI-processes     *
           *              working on a common directory               *
           ************************************************************
-------------------------------------------------------------------------------
                                 ORCA SCF
-------------------------------------------------------------------------------

------------
SCF SETTINGS
------------
Hamiltonian:
 Density Functional     Method          .... DFT(GTOs)
 Exchange Functional    Exchange        .... M062X
 Correlation Functional Correlation     .... M062X
 Gradients option       PostSCFGGA      .... off
 Hybrid DFT is turned on
   Fraction HF Exchange ScalHFX         ....  0.540000
   Scaling of DF-GGA-X  ScalDFX         ....  0.460000
   Scaling of DF-GGA-C  ScalDFC         ....  1.000000
   Scaling of DF-LDA-C  ScalLDAC        ....  1.000000
   Perturbative correction              ....  0.000000
   Density functional embedding theory  .... OFF
 RI-approximation to the Coulomb term is turned on
   Number of AuxJ basis functions       .... 1286
   RIJ-COSX (HFX calculated with COS-X)).... on


General Settings:
 Integral files         IntName         .... eight_nine
 Hartree-Fock type      HFTyp           .... RHF
 Total Charge           Charge          ....    0
 Multiplicity           Mult            ....    1
 Number of Electrons    NEL             ....  154
 Basis Dimension        Dim             ....  804
 Nuclear Repulsion      ENuc            ....   1801.0156655367 Eh

Convergence Acceleration:
 DIIS                   CNVDIIS         .... on
   Start iteration      DIISMaxIt       ....    12
   Startup error        DIISStart       ....  0.200000
   # of expansion vecs  DIISMaxEq       ....     5
   Bias factor          DIISBfac        ....   1.050
   Max. coefficient     DIISMaxC        ....  10.000
 Trust-Rad. Augm. Hess. CNVTRAH         .... auto
   Auto Start mean grad. ratio tolernc. ....  1.125000
   Auto Start start iteration           ....    20
   Auto Start num. interpolation iter.  ....    10
   Max. Number of Micro iterations      ....    16
   Max. Number of Macro iterations      .... Maxiter - #DIIS iter
   Number of Davidson start vectors     ....     2
   Converg. threshold I  (grad. norm)   ....   1.000e-05
   Converg. threshold II (energy diff.) ....   1.000e-08
   Grad. Scal. Fac. for Micro threshold ....   0.100
   Minimum threshold for Micro iter.    ....   0.010
   NR start threshold (gradient norm)   ....   0.001
   Initial trust radius                 ....   0.400
   Minimum AH scaling param. (alpha)    ....   1.000
   Maximum AH scaling param. (alpha)    .... 1000.000
   Orbital update algorithm             .... Taylor
   White noise on init. David. guess    .... on
   Maximum white noise                  ....   0.010
   Quad. conv. algorithm                .... NR
 SOSCF                  CNVSOSCF        .... on
   Start iteration      SOSCFMaxIt      ....   150
   Startup grad/error   SOSCFStart      ....  0.003300
 Level Shifting         CNVShift        .... on
   Level shift para.    LevelShift      ....    0.2500
   Turn off err/grad.   ShiftErr        ....    0.0010
 Zerner damping         CNVZerner       .... off
 Static damping         CNVDamp         .... on
   Fraction old density DampFac         ....    0.7000
   Max. Damping (<1)    DampMax         ....    0.9800
   Min. Damping (>=0)   DampMin         ....    0.0000
   Turn off err/grad.   DampErr         ....    0.1000
 Fernandez-Rico         CNVRico         .... off

SCF Procedure:
 Maximum # iterations   MaxIter         ....   125
 SCF integral mode      SCFMode         .... Direct
   Integral package                     .... SHARK and LIBINT hybrid scheme
 Reset frequency        DirectResetFreq ....    20
 Integral Threshold     Thresh          ....  2.500e-11 Eh
 Primitive CutOff       TCut            ....  2.500e-12 Eh

Convergence Tolerance:
 Convergence Check Mode ConvCheckMode   .... Total+1el-Energy
 Convergence forced     ConvForced      .... 0
 Energy Change          TolE            ....  1.000e-08 Eh
 1-El. energy change                    ....  1.000e-05 Eh
 Orbital Gradient       TolG            ....  1.000e-05
 Orbital Rotation angle TolX            ....  1.000e-05
 DIIS Error             TolErr          ....  5.000e-07


Diagonalization of the overlap matrix:
Smallest eigenvalue                        ... 6.236e-07
Time for diagonalization                   ...    0.225 sec
Threshold for overlap eigenvalues          ... 1.000e-08
Number of eigenvalues below threshold      ... 0
Time for construction of square roots      ...    0.102 sec
Total time needed                          ...    0.330 sec

Time for model grid setup =    0.510 sec

------------------------------
INITIAL GUESS: MODEL POTENTIAL
------------------------------
Loading Hartree-Fock densities                     ... done
Calculating cut-offs                               ... done
Initializing the effective Hamiltonian             ... done
Setting up the integral package (SHARK)            ... done
Starting the Coulomb interaction                   ... done (   1.4 sec)
Reading the grid                                   ... done
Mapping shells                                     ... done
Starting the XC term evaluation                    ... done (   1.2 sec)
  promolecular density results
     # of electrons  =    153.982669711
     EX              =   -125.796358340
     EC              =     -5.219849533
     EX+EC           =   -131.016207873
Transforming the Hamiltonian                       ... done (   0.1 sec)
Diagonalizing the Hamiltonian                      ... done (   0.1 sec)
Back transforming the eigenvectors                 ... done (   0.0 sec)
Now organizing SCF variables                       ... done
                      ------------------
                      INITIAL GUESS DONE (   3.4 sec)
                      ------------------
-------------------
DFT GRID GENERATION
-------------------

General Integration Accuracy     IntAcc      ... 4.388
Radial Grid Type                 RadialGrid  ... OptM3 with GC (2021)
Angular Grid (max. ang.)         AngularGrid ... 4 (Lebedev-302)
Angular grid pruning method      GridPruning ... 4 (adaptive)
Weight generation scheme         WeightScheme... Becke
Basis function cutoff            BFCut       ... 1.0000e-11
Integration weight cutoff        WCut        ... 1.0000e-14
Angular grids for H and He will be reduced by one unit
Partially contracted basis set               ... off
Rotationally invariant grid construction     ... off

Total number of grid points                  ...   174230
Total number of batches                      ...     2739
Average number of points per batch           ...       63
Average number of grid points per atom       ...     5124
Time for grid setup =    1.806 sec

--------------------
COSX GRID GENERATION
--------------------

GRIDX 1
-------
General Integration Accuracy     IntAcc      ... 3.816
Radial Grid Type                 RadialGrid  ... OptM3 with GC (2021)
Angular Grid (max. ang.)         AngularGrid ... 1 (Lebedev-50)
Angular grid pruning method      GridPruning ... 4 (adaptive)
Weight generation scheme         WeightScheme... Becke
Basis function cutoff            BFCut       ... 1.0000e-11
Integration weight cutoff        WCut        ... 1.0000e-14
Angular grids for H and He will be reduced by one unit
Partially contracted basis set               ... on
Rotationally invariant grid construction     ... off

Total number of grid points                  ...    22175
Total number of batches                      ...      359
Average number of points per batch           ...       61
Average number of grid points per atom       ...      652
UseSFitting                                  ... on

GRIDX 2
-------
General Integration Accuracy     IntAcc      ... 4.020
Radial Grid Type                 RadialGrid  ... OptM3 with GC (2021)
Angular Grid (max. ang.)         AngularGrid ... 2 (Lebedev-110)
Angular grid pruning method      GridPruning ... 4 (adaptive)
Weight generation scheme         WeightScheme... Becke
Basis function cutoff            BFCut       ... 1.0000e-11
Integration weight cutoff        WCut        ... 1.0000e-14
Angular grids for H and He will be reduced by one unit
Partially contracted basis set               ... on
Rotationally invariant grid construction     ... off

Total number of grid points                  ...    49037
Total number of batches                      ...      786
Average number of points per batch           ...       62
Average number of grid points per atom       ...     1442
UseSFitting                                  ... on

GRIDX 3
-------
General Integration Accuracy     IntAcc      ... 4.338
Radial Grid Type                 RadialGrid  ... OptM3 with GC (2021)
Angular Grid (max. ang.)         AngularGrid ... 3 (Lebedev-194)
Angular grid pruning method      GridPruning ... 4 (adaptive)
Weight generation scheme         WeightScheme... Becke
Basis function cutoff            BFCut       ... 1.0000e-11
Integration weight cutoff        WCut        ... 1.0000e-14
Angular grids for H and He will be reduced by one unit
Partially contracted basis set               ... on
Rotationally invariant grid construction     ... off

Total number of grid points                  ...   107941
Total number of batches                      ...     1705
Average number of points per batch           ...       63
Average number of grid points per atom       ...     3175
UseSFitting                                  ... on

Time for X-Grid setup             =    3.919 sec

--------------
SCF ITERATIONS
--------------
ITER       Energy         Delta-E        Max-DP      RMS-DP      [F,P]     Damp
               ***  Starting incremental Fock matrix formation  ***
  0   -919.9463215834   0.000000000000 0.15635572  0.00177590  0.1467165 0.7000
  1   -920.1396278600  -0.193306276623 0.13705123  0.00148384  0.0855596 0.7000
                               ***Turning on DIIS***
  2   -920.2302949468  -0.090667086835 0.35323297  0.00364298  0.0542857 0.0000
  3   -920.3825183490  -0.152223402163 0.04368537  0.00062384  0.0464700 0.0000
  4   -920.4043715271  -0.021853178113 0.01673199  0.00020579  0.0420915 0.0000
  5   -920.4087215394  -0.004350012295 0.00779734  0.00011566  0.0033891 0.0000
                      *** Initiating the SOSCF procedure ***
                           *** Shutting down DIIS ***
                      *** Re-Reading the Fockian *** 
                      *** Removing any level shift *** 
ITER      Energy       Delta-E        Grad      Rot      Max-DP    RMS-DP
  6   -920.40890389  -0.0001823501  0.001557  0.001557  0.004556  0.000046
               *** Restarting incremental Fock matrix formation ***
  7   -920.40856062   0.0003432729  0.000615  0.002786  0.022577  0.000336
  8   -920.40860128  -0.0000406658  0.001546  0.017366  0.043991  0.000553
  9   -920.40856259   0.0000386887  0.003058  0.009528  0.037948  0.000452
 10   -920.40862132  -0.0000587232  0.000334  0.002087  0.014387  0.000228
 11   -920.40861827   0.0000030426  0.000340  0.002241  0.009479  0.000146
 12   -920.40862815  -0.0000098728  0.000032  0.000124  0.000261  0.000004
 13   -920.40862811   0.0000000332  0.000026  0.000052  0.000275  0.000004
 14   -920.40862823  -0.0000001133  0.000007  0.000029  0.000074  0.000002
 15   -920.40862822   0.0000000031  0.000006  0.000016  0.000079  0.000001
                  ***Gradient check signals convergence***
              ***Rediagonalizing the Fockian in SOSCF/NRSCF***

               *****************************************************
               *                     SUCCESS                       *
               *           SCF CONVERGED AFTER  16 CYCLES          *
               *****************************************************

Old exchange energy                            =    -69.154355538 Eh
New exchange energy                            =    -69.154180669 Eh
Exchange energy change after final integration =      0.000174869 Eh
Total energy after final integration           =   -920.408453359 Eh
Final COS-X integration done in                =    95.270 sec

----------------
TOTAL SCF ENERGY
----------------

Total Energy       :         -920.40845336 Eh          -25045.58731 eV

Components:
Nuclear Repulsion  :         1801.01566554 Eh           49008.12778 eV
Electronic Energy  :        -2721.42411890 Eh          -74053.71509 eV
One Electron Energy:        -4820.14982228 Eh         -131162.94486 eV
Two Electron Energy:         2098.72570338 Eh           57109.22977 eV
Max COSX asymmetry :            0.00000302 Eh               0.00008 eV

Virial components:
Potential Energy   :        -1836.28377096 Eh          -49967.82172 eV
Kinetic Energy     :          915.87531760 Eh           24922.23441 eV
Virial Ratio       :            2.00494951


DFT components:
N(Alpha)           :       77.000169320071 electrons
N(Beta)            :       77.000169320071 electrons
N(Total)           :      154.000338640142 electrons
E(XC)              :      -64.628126786176 Eh       
DFET-embed. en.    :        0.000000000000 Eh       

---------------
SCF CONVERGENCE
---------------

  Last Energy change         ...   -3.6866e-09  Tolerance :   1.0000e-08
  Last MAX-Density change    ...    2.6645e-15  Tolerance :   1.0000e-07
  Last RMS-Density change    ...    1.3912e-17  Tolerance :   5.0000e-09
  Last Orbital Gradient      ...    7.9434e-07  Tolerance :   1.0000e-05
  Last Orbital Rotation      ...    6.6981e-06  Tolerance :   1.0000e-05

             **** THE GBW FILE WAS UPDATED (eight_nine.gbw) ****
             **** DENSITY eight_nine.scfp WAS UPDATED ****
             **** ENERGY FILE WAS UPDATED (eight_nine.en.tmp) ****
             **** THE GBW FILE WAS UPDATED (eight_nine.gbw) ****
             **** DENSITY eight_nine.scfp WAS UPDATED ****
----------------
ORBITAL ENERGIES
----------------

  NO   OCC          E(Eh)            E(eV) 
   0   2.0000     -10.592141      -288.2268 
   1   2.0000     -10.584134      -288.0089 
   2   2.0000     -10.581471      -287.9365 
   3   2.0000     -10.572932      -287.7041 
   4   2.0000     -10.568234      -287.5763 
   5   2.0000     -10.566226      -287.5216 
   6   2.0000     -10.566062      -287.5172 
   7   2.0000     -10.565034      -287.4892 
   8   2.0000     -10.564415      -287.4724 
   9   2.0000     -10.563057      -287.4354 
  10   2.0000     -10.562470      -287.4194 
  11   2.0000     -10.561901      -287.4039 
  12   2.0000     -10.561792      -287.4010 
  13   2.0000     -10.561646      -287.3970 
  14   2.0000     -10.561056      -287.3809 
  15   2.0000     -10.556697      -287.2623 
  16   2.0000     -10.555744      -287.2364 
  17   2.0000     -10.554201      -287.1944 
  18   2.0000     -10.554130      -287.1925 
  19   2.0000     -10.553498      -287.1753 
  20   2.0000     -10.552991      -287.1615 
  21   2.0000     -10.552910      -287.1593 
  22   2.0000     -10.552255      -287.1415 
  23   2.0000     -10.549949      -287.0787 
  24   2.0000      -1.030672       -28.0460 
  25   2.0000      -0.990873       -26.9630 
  26   2.0000      -0.988615       -26.9016 
  27   2.0000      -0.938153       -25.5284 
  28   2.0000      -0.936568       -25.4853 
  29   2.0000      -0.917547       -24.9677 
  30   2.0000      -0.883869       -24.0513 
  31   2.0000      -0.869360       -23.6565 
  32   2.0000      -0.851728       -23.1767 
  33   2.0000      -0.846417       -23.0322 
  34   2.0000      -0.817497       -22.2452 
  35   2.0000      -0.809996       -22.0411 
  36   2.0000      -0.734356       -19.9829 
  37   2.0000      -0.728348       -19.8194 
  38   2.0000      -0.727307       -19.7910 
  39   2.0000      -0.719939       -19.5905 
  40   2.0000      -0.711804       -19.3692 
  41   2.0000      -0.646229       -17.5848 
  42   2.0000      -0.642284       -17.4774 
  43   2.0000      -0.627455       -17.0739 
  44   2.0000      -0.616615       -16.7790 
  45   2.0000      -0.606406       -16.5011 
  46   2.0000      -0.597422       -16.2567 
  47   2.0000      -0.555375       -15.1125 
  48   2.0000      -0.549145       -14.9430 
  49   2.0000      -0.540344       -14.7035 
  50   2.0000      -0.536547       -14.6002 
  51   2.0000      -0.523331       -14.2406 
  52   2.0000      -0.519745       -14.1430 
  53   2.0000      -0.519273       -14.1301 
  54   2.0000      -0.498563       -13.5666 
  55   2.0000      -0.496993       -13.5239 
  56   2.0000      -0.483171       -13.1478 
  57   2.0000      -0.481385       -13.0992 
  58   2.0000      -0.475249       -12.9322 
  59   2.0000      -0.471943       -12.8422 
  60   2.0000      -0.469511       -12.7760 
  61   2.0000      -0.459265       -12.4972 
  62   2.0000      -0.438642       -11.9360 
  63   2.0000      -0.432846       -11.7783 
  64   2.0000      -0.430329       -11.7099 
  65   2.0000      -0.409186       -11.1345 
  66   2.0000      -0.407111       -11.0780 
  67   2.0000      -0.395220       -10.7545 
  68   2.0000      -0.389447       -10.5974 
  69   2.0000      -0.383754       -10.4425 
  70   2.0000      -0.338298        -9.2056 
  71   2.0000      -0.333507        -9.0752 
  72   2.0000      -0.317677        -8.6444 
  73   2.0000      -0.315704        -8.5907 
  74   2.0000      -0.260649        -7.0926 
  75   2.0000      -0.256024        -6.9668 
  76   2.0000      -0.246505        -6.7077 
  77   0.0000      -0.124665        -3.3923 
  78   0.0000      -0.045143        -1.2284 
  79   0.0000      -0.038955        -1.0600 
  80   0.0000      -0.002154        -0.0586 
  81   0.0000       0.000166         0.0045 
  82   0.0000       0.018336         0.4990 
  83   0.0000       0.051478         1.4008 
  84   0.0000       0.077155         2.0995 
  85   0.0000       0.081967         2.2304 
  86   0.0000       0.083218         2.2645 
  87   0.0000       0.089501         2.4355 
  88   0.0000       0.097596         2.6557 
  89   0.0000       0.101600         2.7647 
  90   0.0000       0.114797         3.1238 
  91   0.0000       0.119529         3.2525 
  92   0.0000       0.119979         3.2648 
  93   0.0000       0.121055         3.2941 
  94   0.0000       0.124907         3.3989 
  95   0.0000       0.134995         3.6734 
  96   0.0000       0.138107         3.7581 
  97   0.0000       0.141402         3.8477 
  98   0.0000       0.155654         4.2356 
  99   0.0000       0.174607         4.7513 
 100   0.0000       0.177069         4.8183 
 101   0.0000       0.177263         4.8236 
 102   0.0000       0.188226         5.1219 
 103   0.0000       0.189063         5.1447 
 104   0.0000       0.195535         5.3208 
 105   0.0000       0.197383         5.3711 
 106   0.0000       0.210798         5.7361 
 107   0.0000       0.211452         5.7539 
 108   0.0000       0.212803         5.7907 
 109   0.0000       0.225495         6.1360 
 110   0.0000       0.231912         6.3106 
 111   0.0000       0.235108         6.3976 
 112   0.0000       0.239467         6.5162 
 113   0.0000       0.243109         6.6153 
 114   0.0000       0.247126         6.7246 
 115   0.0000       0.259640         7.0652 
 116   0.0000       0.261915         7.1271 
 117   0.0000       0.266580         7.2540 
 118   0.0000       0.268994         7.3197 
 119   0.0000       0.275622         7.5001 
 120   0.0000       0.280415         7.6305 
 121   0.0000       0.282641         7.6911 
 122   0.0000       0.283638         7.7182 
 123   0.0000       0.285580         7.7710 
 124   0.0000       0.292056         7.9472 
 125   0.0000       0.294086         8.0025 
 126   0.0000       0.296040         8.0557 
 127   0.0000       0.303045         8.2463 
 128   0.0000       0.308179         8.3860 
 129   0.0000       0.310707         8.4548 
 130   0.0000       0.317809         8.6480 
 131   0.0000       0.319130         8.6840 
 132   0.0000       0.319937         8.7059 
 133   0.0000       0.321377         8.7451 
 134   0.0000       0.324806         8.8384 
 135   0.0000       0.328354         8.9350 
 136   0.0000       0.335595         9.1320 
 137   0.0000       0.343827         9.3560 
 138   0.0000       0.351408         9.5623 
 139   0.0000       0.354984         9.6596 
 140   0.0000       0.358096         9.7443 
 141   0.0000       0.359699         9.7879 
 142   0.0000       0.361913         9.8482 
 143   0.0000       0.374040        10.1782 
 144   0.0000       0.375662        10.2223 
 145   0.0000       0.381071        10.3695 
 146   0.0000       0.381698        10.3865 
 147   0.0000       0.382126        10.3982 
 148   0.0000       0.382223        10.4008 
 149   0.0000       0.386914        10.5285 
 150   0.0000       0.388617        10.5748 
 151   0.0000       0.392055        10.6684 
 152   0.0000       0.406056        11.0494 
 153   0.0000       0.410853        11.1799 
 154   0.0000       0.414773        11.2865 
 155   0.0000       0.415256        11.2997 
 156   0.0000       0.419711        11.4209 
 157   0.0000       0.422209        11.4889 
 158   0.0000       0.428324        11.6553 
 159   0.0000       0.429294        11.6817 
 160   0.0000       0.441259        12.0073 
 161   0.0000       0.444044        12.0831 
 162   0.0000       0.455709        12.4005 
 163   0.0000       0.457103        12.4384 
 164   0.0000       0.460115        12.5204 
 165   0.0000       0.462239        12.5782 
 166   0.0000       0.466000        12.6805 
 167   0.0000       0.466143        12.6844 
 168   0.0000       0.475058        12.9270 
 169   0.0000       0.476492        12.9660 
 170   0.0000       0.478574        13.0227 
 171   0.0000       0.496631        13.5140 
 172   0.0000       0.507826        13.8187 
 173   0.0000       0.512710        13.9515 
 174   0.0000       0.513082        13.9617 
 175   0.0000       0.514365        13.9966 
 176   0.0000       0.515541        14.0286 
 177   0.0000       0.516431        14.0528 
 178   0.0000       0.526006        14.3133 
 179   0.0000       0.532102        14.4792 
 180   0.0000       0.544826        14.8255 
 181   0.0000       0.545491        14.8436 
 182   0.0000       0.547126        14.8881 
 183   0.0000       0.548315        14.9204 
 184   0.0000       0.553155        15.0521 
 185   0.0000       0.554657        15.0930 
 186   0.0000       0.572081        15.5671 
 187   0.0000       0.572746        15.5852 
 188   0.0000       0.573527        15.6065 
 189   0.0000       0.581265        15.8170 
 190   0.0000       0.597777        16.2663 
 191   0.0000       0.607613        16.5340 
 192   0.0000       0.615826        16.7575 
 193   0.0000       0.630862        17.1666 
 194   0.0000       0.632318        17.2062 
 195   0.0000       0.633822        17.2472 
 196   0.0000       0.634602        17.2684 
 197   0.0000       0.636336        17.3156 
 198   0.0000       0.642200        17.4751 
 199   0.0000       0.648459        17.6455 
 200   0.0000       0.651974        17.7411 
 201   0.0000       0.657813        17.9000 
 202   0.0000       0.660844        17.9825 
 203   0.0000       0.665022        18.0962 
 204   0.0000       0.667134        18.1536 
 205   0.0000       0.670739        18.2517 
 206   0.0000       0.674878        18.3644 
 207   0.0000       0.683003        18.5855 
 208   0.0000       0.683930        18.6107 
 209   0.0000       0.687968        18.7206 
 210   0.0000       0.696636        18.9564 
 211   0.0000       0.698805        19.0155 
 212   0.0000       0.709450        19.3051 
 213   0.0000       0.724863        19.7245 
 214   0.0000       0.725454        19.7406 
 215   0.0000       0.725818        19.7505 
 216   0.0000       0.740674        20.1548 
 217   0.0000       0.748077        20.3562 
 218   0.0000       0.751588        20.4518 
 219   0.0000       0.762946        20.7608 
 220   0.0000       0.765882        20.8407 
 221   0.0000       0.765910        20.8415 
 222   0.0000       0.766820        20.8662 
 223   0.0000       0.774921        21.0867 
 224   0.0000       0.780543        21.2397 
 225   0.0000       0.784473        21.3466 
 226   0.0000       0.787262        21.4225 
 227   0.0000       0.789006        21.4700 
 228   0.0000       0.790524        21.5113 
 229   0.0000       0.792082        21.5537 
 230   0.0000       0.799716        21.7614 
 231   0.0000       0.802155        21.8277 
 232   0.0000       0.810531        22.0557 
 233   0.0000       0.822175        22.3725 
 234   0.0000       0.826051        22.4780 
 235   0.0000       0.828458        22.5435 
 236   0.0000       0.831853        22.6359 
 237   0.0000       0.836070        22.7506 
 238   0.0000       0.846796        23.0425 
 239   0.0000       0.849339        23.1117 
 240   0.0000       0.856758        23.3136 
 241   0.0000       0.865049        23.5392 
 242   0.0000       0.867054        23.5937 
 243   0.0000       0.877744        23.8846 
 244   0.0000       0.878640        23.9090 
 245   0.0000       0.882390        24.0110 
 246   0.0000       0.886091        24.1118 
 247   0.0000       0.889626        24.2079 
 248   0.0000       0.894156        24.3312 
 249   0.0000       0.899459        24.4755 
 250   0.0000       0.907551        24.6957 
 251   0.0000       0.916580        24.9414 
 252   0.0000       0.919983        25.0340 
 253   0.0000       0.921184        25.0667 
 254   0.0000       0.927013        25.2253 
 255   0.0000       0.937890        25.5213 
 256   0.0000       0.950337        25.8600 
 257   0.0000       0.952459        25.9177 
 258   0.0000       0.959406        26.1068 
 259   0.0000       0.976383        26.5687 
 260   0.0000       0.982577        26.7373 
 261   0.0000       0.997621        27.1466 
 262   0.0000       0.999775        27.2053 
 263   0.0000       1.017998        27.7011 
 264   0.0000       1.020977        27.7822 
 265   0.0000       1.021661        27.8008 
 266   0.0000       1.021730        27.8027 
 267   0.0000       1.052033        28.6273 
 268   0.0000       1.052933        28.6518 
 269   0.0000       1.057234        28.7688 
 270   0.0000       1.070327        29.1251 
 271   0.0000       1.075807        29.2742 
 272   0.0000       1.079824        29.3835 
 273   0.0000       1.085276        29.5319 
 274   0.0000       1.089890        29.6574 
 275   0.0000       1.096262        29.8308 
 276   0.0000       1.110951        30.2305 
 277   0.0000       1.115931        30.3660 
 278   0.0000       1.123846        30.5814 
 279   0.0000       1.127753        30.6877 
 280   0.0000       1.134577        30.8734 
 281   0.0000       1.140260        31.0280 
 282   0.0000       1.195204        32.5232 
 283   0.0000       1.196589        32.5608 
 284   0.0000       1.205454        32.8021 
 285   0.0000       1.205770        32.8107 
 286   0.0000       1.215133        33.0655 
 287   0.0000       1.226119        33.3644 
 288   0.0000       1.229610        33.4594 
 289   0.0000       1.232917        33.5494 
 290   0.0000       1.240224        33.7482 
 291   0.0000       1.242959        33.8226 
 292   0.0000       1.248905        33.9844 
 293   0.0000       1.253811        34.1179 
 294   0.0000       1.257531        34.2192 
 295   0.0000       1.269626        34.5483 
 296   0.0000       1.277924        34.7741 
 297   0.0000       1.280462        34.8431 
 298   0.0000       1.282158        34.8893 
 299   0.0000       1.288773        35.0693 
 300   0.0000       1.290155        35.1069 
 301   0.0000       1.301463        35.4146 
 302   0.0000       1.301922        35.4271 
 303   0.0000       1.311792        35.6957 
 304   0.0000       1.318384        35.8750 
 305   0.0000       1.327558        36.1247 
 306   0.0000       1.334081        36.3022 
 307   0.0000       1.346602        36.6429 
 308   0.0000       1.355801        36.8932 
 309   0.0000       1.360795        37.0291 
 310   0.0000       1.366489        37.1841 
 311   0.0000       1.369462        37.2650 
 312   0.0000       1.372320        37.3427 
 313   0.0000       1.379765        37.5453 
 314   0.0000       1.387972        37.7686 
 315   0.0000       1.399364        38.0786 
 316   0.0000       1.402864        38.1739 
 317   0.0000       1.404583        38.2206 
 318   0.0000       1.407743        38.3066 
 319   0.0000       1.411151        38.3994 
 320   0.0000       1.425433        38.7880 
 321   0.0000       1.432907        38.9914 
 322   0.0000       1.437051        39.1041 
 323   0.0000       1.453431        39.5499 
 324   0.0000       1.470520        40.0149 
 325   0.0000       1.471822        40.0503 
 326   0.0000       1.481943        40.3257 
 327   0.0000       1.492112        40.6024 
 328   0.0000       1.492674        40.6177 
 329   0.0000       1.494573        40.6694 
 330   0.0000       1.502488        40.8848 
 331   0.0000       1.510825        41.1116 
 332   0.0000       1.515099        41.2279 
 333   0.0000       1.526489        41.5379 
 334   0.0000       1.533204        41.7206 
 335   0.0000       1.539741        41.8985 
 336   0.0000       1.546222        42.0748 
 337   0.0000       1.548073        42.1252 
 338   0.0000       1.555079        42.3158 
 339   0.0000       1.569892        42.7189 
 340   0.0000       1.572394        42.7870 
 341   0.0000       1.574350        42.8403 
 342   0.0000       1.575764        42.8787 
 343   0.0000       1.589167        43.2434 
 344   0.0000       1.592405        43.3316 
 345   0.0000       1.610795        43.8320 
 346   0.0000       1.613779        43.9132 
 347   0.0000       1.622888        44.1610 
 348   0.0000       1.631854        44.4050 
 349   0.0000       1.636628        44.5349 
 350   0.0000       1.643635        44.7256 
 351   0.0000       1.647368        44.8272 
 352   0.0000       1.648398        44.8552 
 353   0.0000       1.654487        45.0209 
 354   0.0000       1.657349        45.0988 
 355   0.0000       1.657753        45.1097 
 356   0.0000       1.663659        45.2705 
 357   0.0000       1.667090        45.3638 
 358   0.0000       1.705322        46.4042 
 359   0.0000       1.715840        46.6904 
 360   0.0000       1.721281        46.8384 
 361   0.0000       1.721634        46.8480 
 362   0.0000       1.729464        47.0611 
 363   0.0000       1.731463        47.1155 
 364   0.0000       1.733249        47.1641 
 365   0.0000       1.733259        47.1644 
 366   0.0000       1.743483        47.4426 
 367   0.0000       1.749087        47.5951 
 368   0.0000       1.751985        47.6739 
 369   0.0000       1.753154        47.7057 
 370   0.0000       1.756989        47.8101 
 371   0.0000       1.772549        48.2335 
 372   0.0000       1.772593        48.2347 
 373   0.0000       1.778054        48.3833 
 374   0.0000       1.781836        48.4862 
 375   0.0000       1.796739        48.8918 
 376   0.0000       1.815937        49.4142 
 377   0.0000       1.821901        49.5764 
 378   0.0000       1.828646        49.7600 
 379   0.0000       1.856422        50.5158 
 380   0.0000       1.865055        50.7507 
 381   0.0000       1.885046        51.2947 
 382   0.0000       1.907533        51.9066 
 383   0.0000       1.910872        51.9975 
 384   0.0000       1.914017        52.0830 
 385   0.0000       1.918947        52.2172 
 386   0.0000       1.924501        52.3683 
 387   0.0000       1.929101        52.4935 
 388   0.0000       1.949557        53.0501 
 389   0.0000       1.963804        53.4378 
 390   0.0000       1.969030        53.5800 
 391   0.0000       1.978659        53.8421 
 392   0.0000       1.981030        53.9066 
 393   0.0000       1.990044        54.1518 
 394   0.0000       1.994694        54.2784 
 395   0.0000       1.995793        54.3083 
 396   0.0000       2.024341        55.0851 
 397   0.0000       2.026329        55.1392 
[...]

For completeness - the Gibbs free energy minus the electronic energy
G-E(el)                           ...     -3.60263081 Eh  -2260.68 kcal/mol


The first frequency considered to be a vibration is 6
The total number of vibrations considered is 96


--------------------------
THERMOCHEMISTRY AT 8000.00K
--------------------------

Temperature         ... 8000.00 K
Pressure            ... 1.00 atm
Total Mass          ... 298.34 AMU

Throughout the following assumptions are being made:
  (1) The electronic state is orbitally nondegenerate
  (2) There are no thermally accessible electronically excited states
  (3) Hindered rotations indicated by low frequency modes are not
      treated as such but are treated as vibrations and this may
      cause some error
  (4) All equations used are the standard statistical mechanics
      equations for an ideal gas
  (5) All vibrations are strictly harmonic

freq.      54.65  E(vib)   ...      15.82 
freq.      83.15  E(vib)   ...      15.78 
freq.     136.48  E(vib)   ...      15.70 
freq.     140.81  E(vib)   ...      15.70 
freq.     216.72  E(vib)   ...      15.59 
freq.     224.49  E(vib)   ...      15.58 
freq.     280.12  E(vib)   ...      15.50 
freq.     296.96  E(vib)   ...      15.48 
freq.     303.17  E(vib)   ...      15.47 
freq.     319.25  E(vib)   ...      15.45 
freq.     374.92  E(vib)   ...      15.37 
freq.     386.21  E(vib)   ...      15.35 
freq.     387.57  E(vib)   ...      15.35 
freq.     403.11  E(vib)   ...      15.33 
freq.     427.84  E(vib)   ...      15.29 
freq.     459.53  E(vib)   ...      15.25 
freq.     493.49  E(vib)   ...      15.20 
freq.     493.84  E(vib)   ...      15.20 
freq.     499.75  E(vib)   ...      15.19 
freq.     526.39  E(vib)   ...      15.16 
freq.     526.79  E(vib)   ...      15.16 
freq.     536.13  E(vib)   ...      15.14 
freq.     560.56  E(vib)   ...      15.11 
freq.     577.50  E(vib)   ...      15.09 
freq.     589.65  E(vib)   ...      15.07 
freq.     637.70  E(vib)   ...      15.00 
freq.     651.26  E(vib)   ...      14.99 
freq.     665.76  E(vib)   ...      14.97 
freq.     670.67  E(vib)   ...      14.96 
freq.     691.60  E(vib)   ...      14.93 
freq.     710.77  E(vib)   ...      14.90 
freq.     730.43  E(vib)   ...      14.88 
freq.     782.73  E(vib)   ...      14.81 
freq.     782.88  E(vib)   ...      14.81 
freq.     792.37  E(vib)   ...      14.79 
freq.     814.19  E(vib)   ...      14.76 
freq.     817.23  E(vib)   ...      14.76 
freq.     824.33  E(vib)   ...      14.75 
freq.     831.60  E(vib)   ...      14.74 
freq.     865.55  E(vib)   ...      14.69 
freq.     867.18  E(vib)   ...      14.69 
freq.     884.80  E(vib)   ...      14.67 
freq.     890.40  E(vib)   ...      14.66 
freq.     913.52  E(vib)   ...      14.63 
freq.     949.97  E(vib)   ...      14.58 
freq.     973.49  E(vib)   ...      14.55 
freq.     980.12  E(vib)   ...      14.54 
freq.     988.23  E(vib)   ...      14.53 
freq.     994.91  E(vib)   ...      14.52 
freq.     999.24  E(vib)   ...      14.51 
freq.    1017.00  E(vib)   ...      14.49 
freq.    1031.73  E(vib)   ...      14.47 
freq.    1123.97  E(vib)   ...      14.35 
freq.    1124.34  E(vib)   ...      14.34 
freq.    1169.16  E(vib)   ...      14.29 
freq.    1174.52  E(vib)   ...      14.28 
freq.    1185.69  E(vib)   ...      14.26 
freq.    1191.54  E(vib)   ...      14.26 
freq.    1204.85  E(vib)   ...      14.24 
freq.    1212.58  E(vib)   ...      14.23 
freq.    1242.96  E(vib)   ...      14.19 
freq.    1253.64  E(vib)   ...      14.17 
freq.    1255.99  E(vib)   ...      14.17 
freq.    1257.91  E(vib)   ...      14.17 
freq.    1320.84  E(vib)   ...      14.08 
freq.    1325.83  E(vib)   ...      14.08 
freq.    1348.94  E(vib)   ...      14.05 
freq.    1389.97  E(vib)   ...      13.99 
freq.    1406.78  E(vib)   ...      13.97 
freq.    1415.82  E(vib)   ...      13.96 
freq.    1438.00  E(vib)   ...      13.93 
freq.    1446.65  E(vib)   ...      13.92 
freq.    1453.86  E(vib)   ...      13.91 
freq.    1468.68  E(vib)   ...      13.89 
freq.    1469.92  E(vib)   ...      13.89 
freq.    1483.53  E(vib)   ...      13.87 
freq.    1527.41  E(vib)   ...      13.81 
freq.    1536.10  E(vib)   ...      13.80 
freq.    1556.08  E(vib)   ...      13.78 
freq.    1592.16  E(vib)   ...      13.73 
freq.    1603.63  E(vib)   ...      13.72 
freq.    1675.49  E(vib)   ...      13.62 
freq.    1675.64  E(vib)   ...      13.62 
freq.    1691.64  E(vib)   ...      13.60 
freq.    1696.19  E(vib)   ...      13.60 
freq.    1714.04  E(vib)   ...      13.57 
freq.    3186.71  E(vib)   ...      11.78 
freq.    3187.25  E(vib)   ...      11.77 
freq.    3204.21  E(vib)   ...      11.75 
freq.    3205.03  E(vib)   ...      11.75 
freq.    3206.85  E(vib)   ...      11.75 
freq.    3206.88  E(vib)   ...      11.75 
freq.    3220.64  E(vib)   ...      11.74 
freq.    3221.69  E(vib)   ...      11.73 
freq.    3224.06  E(vib)   ...      11.73 
freq.    3224.20  E(vib)   ...      11.73 

------------
INNER ENERGY
------------

The inner energy is: U= E(el) + E(ZPE) + E(vib) + E(rot) + E(trans)
    E(el)   - is the total energy from the electronic structure calculation
              = E(kin-el) + E(nuc-el) + E(el-el) + E(nuc-nuc)
    E(ZPE)  - the the zero temperature vibrational energy from the frequency calculation
    E(vib)  - the the finite temperature correction to E(ZPE) due to population
              of excited vibrational states
    E(rot)  - is the rotational thermal energy
    E(trans)- is the translational thermal energy

Summary of contributions to the inner energy U:
Electronic energy                ...   -920.42182909 Eh
Zero point energy                ...      0.25465491 Eh     159.80 kcal/mol
Thermal vibrational correction   ...      2.19075296 Eh    1374.72 kcal/mol
Thermal rotational correction    ...      0.03800158 Eh      23.85 kcal/mol
Thermal translational correction ...      0.03800158 Eh      23.85 kcal/mol
-----------------------------------------------------------------------
Total thermal energy                   -917.90041805 Eh


Summary of corrections to the electronic energy:
(perhaps to be used in another calculation)
Total thermal correction                  2.26675612 Eh    1422.41 kcal/mol
Non-thermal (ZPE) correction              0.25465491 Eh     159.80 kcal/mol
-----------------------------------------------------------------------
Total correction                          2.52141103 Eh    1582.21 kcal/mol


--------
ENTHALPY
--------

The enthalpy is H = U + kB*T
                kB is Boltzmann's constant
Total free energy                 ...   -917.90041805 Eh 
Thermal Enthalpy correction       ...      0.02533514 Eh      15.90 kcal/mol
-----------------------------------------------------------------------
Total Enthalpy                    ...   -917.87508291 Eh


Note: Rotational entropy computed according to Herzberg 
Infrared and Raman Spectra, Chapter V,1, Van Nostrand Reinhold, 1945 
Point Group:  Cs, Symmetry Number:   1  
Rotational constants in cm-1:     0.011663     0.011161     0.005703 

Vibrational entropy computed according to the QRRHO of S. Grimme
Chem.Eur.J. 2012 18 9955


-------
ENTROPY
-------

The entropy contributions are T*S = T*(S(el)+S(vib)+S(rot)+S(trans))
     S(el)   - electronic entropy
     S(vib)  - vibrational entropy
     S(rot)  - rotational entropy
     S(trans)- translational entropy
The entropies will be listed as multiplied by the temperature to get
units of energy

Electronic entropy                ...      0.00000000 Eh      0.00 kcal/mol
Vibrational entropy               ...      6.76099591 Eh   4242.58 kcal/mol
Rotational entropy                ...      0.55898260 Eh    350.77 kcal/mol
Translational entropy             ...      0.75624431 Eh    474.55 kcal/mol
-----------------------------------------------------------------------
Final entropy term                ...      8.07622283 Eh   5067.90 kcal/mol

In case the symmetry of your molecule has not been determined correctly
or in case you have a reason to use a different symmetry number we print 
out the resulting rotational entropy values for sn=1,12 :
 --------------------------------------------------------
|  sn= 1 | S(rot)=       0.55898260 Eh    350.77 kcal/mol|
|  sn= 2 | S(rot)=       0.54142214 Eh    339.75 kcal/mol|
|  sn= 3 | S(rot)=       0.53114993 Eh    333.30 kcal/mol|
|  sn= 4 | S(rot)=       0.52386168 Eh    328.73 kcal/mol|
|  sn= 5 | S(rot)=       0.51820848 Eh    325.18 kcal/mol|
|  sn= 6 | S(rot)=       0.51358947 Eh    322.28 kcal/mol|
|  sn= 7 | S(rot)=       0.50968416 Eh    319.83 kcal/mol|
|  sn= 8 | S(rot)=       0.50630122 Eh    317.71 kcal/mol|
|  sn= 9 | S(rot)=       0.50331726 Eh    315.84 kcal/mol|
|  sn=10 | S(rot)=       0.50064802 Eh    314.16 kcal/mol|
|  sn=11 | S(rot)=       0.49823339 Eh    312.65 kcal/mol|
|  sn=12 | S(rot)=       0.49602901 Eh    311.26 kcal/mol|
 --------------------------------------------------------


-------------------
GIBBS FREE ENERGY
-------------------

The Gibbs free energy is G = H - T*S

Total enthalpy                    ...   -917.87508291 Eh 
Total entropy correction          ...     -8.07622283 Eh  -5067.90 kcal/mol
-----------------------------------------------------------------------
Final Gibbs free energy         ...   -925.95130574 Eh

For completeness - the Gibbs free energy minus the electronic energy
G-E(el)                           ...     -5.52947665 Eh  -3469.79 kcal/mol


The first frequency considered to be a vibration is 6
The total number of vibrations considered is 96


--------------------------
THERMOCHEMISTRY AT 10000.00K
--------------------------

Temperature         ... 10000.00 K
Pressure            ... 1.00 atm
Total Mass          ... 298.34 AMU

Throughout the following assumptions are being made:
  (1) The electronic state is orbitally nondegenerate
  (2) There are no thermally accessible electronically excited states
  (3) Hindered rotations indicated by low frequency modes are not
      treated as such but are treated as vibrations and this may
      cause some error
  (4) All equations used are the standard statistical mechanics
      equations for an ideal gas
  (5) All vibrations are strictly harmonic

freq.      54.65  E(vib)   ...      19.79 
freq.      83.15  E(vib)   ...      19.75 
freq.     136.48  E(vib)   ...      19.68 
freq.     140.81  E(vib)   ...      19.67 
freq.     216.72  E(vib)   ...      19.56 
freq.     224.49  E(vib)   ...      19.55 
freq.     280.12  E(vib)   ...      19.47 
freq.     296.96  E(vib)   ...      19.45 
freq.     303.17  E(vib)   ...      19.44 
freq.     319.25  E(vib)   ...      19.42 
freq.     374.92  E(vib)   ...      19.34 
freq.     386.21  E(vib)   ...      19.33 
freq.     387.57  E(vib)   ...      19.32 
freq.     403.11  E(vib)   ...      19.30 
freq.     427.84  E(vib)   ...      19.27 
freq.     459.53  E(vib)   ...      19.22 
freq.     493.49  E(vib)   ...      19.18 
freq.     493.84  E(vib)   ...      19.17 
freq.     499.75  E(vib)   ...      19.17 
freq.     526.39  E(vib)   ...      19.13 
freq.     526.79  E(vib)   ...      19.13 
freq.     536.13  E(vib)   ...      19.12 
freq.     560.56  E(vib)   ...      19.08 
freq.     577.50  E(vib)   ...      19.06 
freq.     589.65  E(vib)   ...      19.04 
freq.     637.70  E(vib)   ...      18.97 
freq.     651.26  E(vib)   ...      18.96 
freq.     665.76  E(vib)   ...      18.94 
freq.     670.67  E(vib)   ...      18.93 
freq.     691.60  E(vib)   ...      18.90 
freq.     710.77  E(vib)   ...      18.87 
freq.     730.43  E(vib)   ...      18.85 
freq.     782.73  E(vib)   ...      18.77 
freq.     782.88  E(vib)   ...      18.77 
freq.     792.37  E(vib)   ...      18.76 
freq.     814.19  E(vib)   ...      18.73 
freq.     817.23  E(vib)   ...      18.73 
freq.     824.33  E(vib)   ...      18.72 
freq.     831.60  E(vib)   ...      18.71 
freq.     865.55  E(vib)   ...      18.66 
freq.     867.18  E(vib)   ...      18.66 
freq.     884.80  E(vib)   ...      18.63 
freq.     890.40  E(vib)   ...      18.63 
freq.     913.52  E(vib)   ...      18.60 
freq.     949.97  E(vib)   ...      18.55 
freq.     973.49  E(vib)   ...      18.51 
freq.     980.12  E(vib)   ...      18.50 
freq.     988.23  E(vib)   ...      18.49 
freq.     994.91  E(vib)   ...      18.48 
freq.     999.24  E(vib)   ...      18.48 
freq.    1017.00  E(vib)   ...      18.45 
freq.    1031.73  E(vib)   ...      18.43 
freq.    1123.97  E(vib)   ...      18.31 
freq.    1124.34  E(vib)   ...      18.31 
freq.    1169.16  E(vib)   ...      18.25 
freq.    1174.52  E(vib)   ...      18.24 
freq.    1185.69  E(vib)   ...      18.23 
freq.    1191.54  E(vib)   ...      18.22 
freq.    1204.85  E(vib)   ...      18.20 
freq.    1212.58  E(vib)   ...      18.19 
freq.    1242.96  E(vib)   ...      18.15 
freq.    1253.64  E(vib)   ...      18.13 
freq.    1255.99  E(vib)   ...      18.13 
freq.    1257.91  E(vib)   ...      18.13 
freq.    1320.84  E(vib)   ...      18.04 
freq.    1325.83  E(vib)   ...      18.04 
freq.    1348.94  E(vib)   ...      18.01 
freq.    1389.97  E(vib)   ...      17.95 
freq.    1406.78  E(vib)   ...      17.93 
freq.    1415.82  E(vib)   ...      17.92 
freq.    1438.00  E(vib)   ...      17.89 
freq.    1446.65  E(vib)   ...      17.88 
freq.    1453.86  E(vib)   ...      17.87 
freq.    1468.68  E(vib)   ...      17.85 
freq.    1469.92  E(vib)   ...      17.85 
freq.    1483.53  E(vib)   ...      17.83 
freq.    1527.41  E(vib)   ...      17.77 
freq.    1536.10  E(vib)   ...      17.76 
freq.    1556.08  E(vib)   ...      17.73 
freq.    1592.16  E(vib)   ...      17.68 
freq.    1603.63  E(vib)   ...      17.67 
freq.    1675.49  E(vib)   ...      17.57 
freq.    1675.64  E(vib)   ...      17.57 
freq.    1691.64  E(vib)   ...      17.55 
freq.    1696.19  E(vib)   ...      17.55 
freq.    1714.04  E(vib)   ...      17.52 
freq.    3186.71  E(vib)   ...      15.66 
freq.    3187.25  E(vib)   ...      15.66 
freq.    3204.21  E(vib)   ...      15.64 
freq.    3205.03  E(vib)   ...      15.64 
freq.    3206.85  E(vib)   ...      15.64 
freq.    3206.88  E(vib)   ...      15.64 
freq.    3220.64  E(vib)   ...      15.62 
freq.    3221.69  E(vib)   ...      15.62 
freq.    3224.06  E(vib)   ...      15.62 
freq.    3224.20  E(vib)   ...      15.62 

------------
INNER ENERGY
------------

The inner energy is: U= E(el) + E(ZPE) + E(vib) + E(rot) + E(trans)
    E(el)   - is the total energy from the electronic structure calculation
              = E(kin-el) + E(nuc-el) + E(el-el) + E(nuc-nuc)
    E(ZPE)  - the the zero temperature vibrational energy from the frequency calculation
    E(vib)  - the the finite temperature correction to E(ZPE) due to population
              of excited vibrational states
    E(rot)  - is the rotational thermal energy
    E(trans)- is the translational thermal energy

Summary of contributions to the inner energy U:
Electronic energy                ...   -920.42182909 Eh
Zero point energy                ...      0.25465491 Eh     159.80 kcal/mol
Thermal vibrational correction   ...      2.79616227 Eh    1754.61 kcal/mol
Thermal rotational correction    ...      0.04750198 Eh      29.81 kcal/mol
Thermal translational correction ...      0.04750198 Eh      29.81 kcal/mol
-----------------------------------------------------------------------
Total thermal energy                   -917.27600795 Eh


Summary of corrections to the electronic energy:
(perhaps to be used in another calculation)
Total thermal correction                  2.89116623 Eh    1814.23 kcal/mol
Non-thermal (ZPE) correction              0.25465491 Eh     159.80 kcal/mol
-----------------------------------------------------------------------
Total correction                          3.14582114 Eh    1974.03 kcal/mol


--------
ENTHALPY
--------

The enthalpy is H = U + kB*T
                kB is Boltzmann's constant
Total free energy                 ...   -917.27600795 Eh 
Thermal Enthalpy correction       ...      0.03166893 Eh      19.87 kcal/mol
-----------------------------------------------------------------------
Total Enthalpy                    ...   -917.24433902 Eh


Note: Rotational entropy computed according to Herzberg 
Infrared and Raman Spectra, Chapter V,1, Van Nostrand Reinhold, 1945 
Point Group:  Cs, Symmetry Number:   1  
Rotational constants in cm-1:     0.011663     0.011161     0.005703 

Vibrational entropy computed according to the QRRHO of S. Grimme
Chem.Eur.J. 2012 18 9955


-------
ENTROPY
-------

The entropy contributions are T*S = T*(S(el)+S(vib)+S(rot)+S(trans))
     S(el)   - electronic entropy
     S(vib)  - vibrational entropy
     S(rot)  - rotational entropy
     S(trans)- translational entropy
The entropies will be listed as multiplied by the temperature to get
units of energy

Electronic entropy                ...      0.00000000 Eh      0.00 kcal/mol
Vibrational entropy               ...      9.11891320 Eh   5722.19 kcal/mol
Rotational entropy                ...      0.70932801 Eh    445.11 kcal/mol
Translational entropy             ...      0.96297166 Eh    604.27 kcal/mol
-----------------------------------------------------------------------
Final entropy term                ...     10.79121287 Eh   6771.57 kcal/mol

In case the symmetry of your molecule has not been determined correctly
or in case you have a reason to use a different symmetry number we print 
out the resulting rotational entropy values for sn=1,12 :
 --------------------------------------------------------
|  sn= 1 | S(rot)=       0.70932801 Eh    445.11 kcal/mol|
|  sn= 2 | S(rot)=       0.68737744 Eh    431.33 kcal/mol|
|  sn= 3 | S(rot)=       0.67453717 Eh    423.28 kcal/mol|
|  sn= 4 | S(rot)=       0.66542686 Eh    417.56 kcal/mol|
|  sn= 5 | S(rot)=       0.65836036 Eh    413.13 kcal/mol|
|  sn= 6 | S(rot)=       0.65258660 Eh    409.50 kcal/mol|
|  sn= 7 | S(rot)=       0.64770496 Eh    406.44 kcal/mol|
|  sn= 8 | S(rot)=       0.64347629 Eh    403.79 kcal/mol|
|  sn= 9 | S(rot)=       0.63974634 Eh    401.45 kcal/mol|
|  sn=10 | S(rot)=       0.63640978 Eh    399.35 kcal/mol|
|  sn=11 | S(rot)=       0.63339150 Eh    397.46 kcal/mol|
|  sn=12 | S(rot)=       0.63063603 Eh    395.73 kcal/mol|
 --------------------------------------------------------


-------------------
GIBBS FREE ENERGY
-------------------

The Gibbs free energy is G = H - T*S

Total enthalpy                    ...   -917.24433902 Eh 
Total entropy correction          ...    -10.79121287 Eh  -6771.57 kcal/mol
-----------------------------------------------------------------------
Final Gibbs free energy         ...   -928.03555189 Eh

For completeness - the Gibbs free energy minus the electronic energy
G-E(el)                           ...     -7.61372280 Eh  -4777.67 kcal/mol


Timings for individual modules:

Sum of individual times         ...    26542.787 sec (= 442.380 min)
GTO integral calculation        ...       36.726 sec (=   0.612 min)   0.1 %
SCF iterations                  ...     6896.715 sec (= 114.945 min)  26.0 %
SCF Gradient evaluation         ...     1886.817 sec (=  31.447 min)   7.1 %
Geometry relaxation             ...        2.698 sec (=   0.045 min)   0.0 %
Analytical frequency calculation...    17719.831 sec (= 295.331 min)  66.8 %
                             ****ORCA TERMINATED NORMALLY****
TOTAL RUN TIME: 0 days 7 hours 22 minutes 34 seconds 328 msec
