
                                 *****************
                                 * O   R   C   A *
                                 *****************

                                            #,                                       
                                            ###                                      
                                            ####                                     
                                            #####                                    
                                            ######                                   
                                           ########,                                 
                                     ,,################,,,,,                         
                               ,,#################################,,                 
                          ,,##########################################,,             
                       ,#########################################, ''#####,          
                    ,#############################################,,   '####,        
                  ,##################################################,,,,####,       
                ,###########''''           ''''###############################       
              ,#####''   ,,,,##########,,,,          '''####'''          '####       
            ,##' ,,,,###########################,,,                        '##       
           ' ,,###''''                  '''############,,,                           
         ,,##''                                '''############,,,,        ,,,,,,###''
      ,#''                                            '''#######################'''  
     '                                                          ''''####''''         
             ,#######,   #######,   ,#######,      ##                                
            ,#'     '#,  ##    ##  ,#'     '#,    #''#        ######   ,####,        
            ##       ##  ##   ,#'  ##            #'  '#       #        #'  '#        
            ##       ##  #######   ##           ,######,      #####,   #    #        
            '#,     ,#'  ##    ##  '#,     ,#' ,#      #,         ##   #,  ,#        
             '#######'   ##     ##  '#######'  #'      '#     #####' # '####'        



                  #######################################################
                  #                        -***-                        #
                  #          Department of theory and spectroscopy      #
                  #    Directorship and core code : Frank Neese         #
                  #        Max Planck Institute fuer Kohlenforschung    #
                  #                Kaiser Wilhelm Platz 1               #
                  #                 D-45470 Muelheim/Ruhr               #
                  #                      Germany                        #
                  #                                                     #
                  #                  All rights reserved                #
                  #                        -***-                        #
                  #######################################################



                         Program Version 5.0.4 -  RELEASE  -

 With contributions from (in alphabetic order):
   Daniel Aravena         : Magnetic Suceptibility
   Michael Atanasov       : Ab Initio Ligand Field Theory (pilot matlab implementation)
   Alexander A. Auer      : GIAO ZORA, VPT2 properties, NMR spectrum
   Ute Becker             : Parallelization
   Giovanni Bistoni       : ED, misc. LED, open-shell LED, HFLD
   Martin Brehm           : Molecular dynamics
   Dmytro Bykov           : SCF Hessian
   Vijay G. Chilkuri      : MRCI spin determinant printing, contributions to CSF-ICE
   Dipayan Datta          : RHF DLPNO-CCSD density
   Achintya Kumar Dutta   : EOM-CC, STEOM-CC
   Dmitry Ganyushin       : Spin-Orbit,Spin-Spin,Magnetic field MRCI
   Miquel Garcia          : C-PCM and meta-GGA Hessian, CC/C-PCM, Gaussian charge scheme
   Yang Guo               : DLPNO-NEVPT2, F12-NEVPT2, CIM, IAO-localization
   Andreas Hansen         : Spin unrestricted coupled pair/coupled cluster methods
   Benjamin Helmich-Paris : MC-RPA, TRAH-SCF, COSX integrals
   Lee Huntington         : MR-EOM, pCC
   Robert Izsak           : Overlap fitted RIJCOSX, COSX-SCS-MP3, EOM
   Marcus Kettner         : VPT2
   Christian Kollmar      : KDIIS, OOCD, Brueckner-CCSD(T), CCSD density, CASPT2, CASPT2-K
   Simone Kossmann        : Meta GGA functionals, TD-DFT gradient, OOMP2, MP2 Hessian
   Martin Krupicka        : Initial AUTO-CI
   Lucas Lang             : DCDCAS
   Marvin Lechner         : AUTO-CI (C++ implementation), FIC-MRCC
   Dagmar Lenk            : GEPOL surface, SMD
   Dimitrios Liakos       : Extrapolation schemes; Compound Job, initial MDCI parallelization
   Dimitrios Manganas     : Further ROCIS development; embedding schemes
   Dimitrios Pantazis     : SARC Basis sets
   Anastasios Papadopoulos: AUTO-CI, single reference methods and gradients
   Taras Petrenko         : DFT Hessian,TD-DFT gradient, ASA, ECA, R-Raman, ABS, FL, XAS/XES, NRVS
   Peter Pinski           : DLPNO-MP2, DLPNO-MP2 Gradient
   Christoph Reimann      : Effective Core Potentials
   Marius Retegan         : Local ZFS, SOC
   Christoph Riplinger    : Optimizer, TS searches, QM/MM, DLPNO-CCSD(T), (RO)-DLPNO pert. Triples
   Tobias Risthaus        : Range-separated hybrids, TD-DFT gradient, RPA, STAB
   Michael Roemelt        : Original ROCIS implementation
   Masaaki Saitow         : Open-shell DLPNO-CCSD energy and density
   Barbara Sandhoefer     : DKH picture change effects
   Avijit Sen             : IP-ROCIS
   Kantharuban Sivalingam : CASSCF convergence, NEVPT2, FIC-MRCI
   Bernardo de Souza      : ESD, SOC TD-DFT
   Georgi Stoychev        : AutoAux, RI-MP2 NMR, DLPNO-MP2 response
   Willem Van den Heuvel  : Paramagnetic NMR
   Boris Wezisla          : Elementary symmetry handling
   Frank Wennmohs         : Technical directorship


 We gratefully acknowledge several colleagues who have allowed us to
 interface, adapt or use parts of their codes:
   Stefan Grimme, W. Hujo, H. Kruse, P. Pracht,  : VdW corrections, initial TS optimization,
                  C. Bannwarth, S. Ehlert          DFT functionals, gCP, sTDA/sTD-DF
   Ed Valeev, F. Pavosevic, A. Kumar             : LibInt (2-el integral package), F12 methods
   Garnet Chan, S. Sharma, J. Yang, R. Olivares  : DMRG
   Ulf Ekstrom                                   : XCFun DFT Library
   Mihaly Kallay                                 : mrcc  (arbitrary order and MRCC methods)
   Jiri Pittner, Ondrej Demel                    : Mk-CCSD
   Frank Weinhold                                : gennbo (NPA and NBO analysis)
   Christopher J. Cramer and Donald G. Truhlar   : smd solvation model
   Lars Goerigk                                  : TD-DFT with DH, B97 family of functionals
   V. Asgeirsson, H. Jonsson                     : NEB implementation
   FAccTs GmbH                                   : IRC, NEB, NEB-TS, DLPNO-Multilevel, CI-OPT
                                                   MM, QMMM, 2- and 3-layer-ONIOM, Crystal-QMMM,
                                                   LR-CPCM, SF, NACMEs, symmetry and pop. for TD-DFT,
                                                   nearIR, NL-DFT gradient (VV10), updates on ESD,
                                                   ML-optimized integration grids
   S Lehtola, MJT Oliveira, MAL Marques          : LibXC Library
   Liviu Ungur et al                             : ANISO software


 Your calculation uses the libint2 library for the computation of 2-el integrals
 For citations please refer to: http://libint.valeyev.net

 Your ORCA version has been built with support for libXC version: 5.1.0
 For citations please refer to: https://tddft.org/programs/libxc/

 This ORCA versions uses:
   CBLAS   interface :  Fast vector & matrix operations
   LAPACKE interface :  Fast linear algebra routines
   Shared memory     :  Shared parallel matrices


XCFun DFT library Copyright 2009-2010 Ulf Ekstrom and contributors.
See http://admol.org/xcfun for more information.
This is free software; see the source code for copying conditions.
There is ABSOLUTELY NO WARRANTY; not even for MERCHANTABILITY or FITNESS FOR A PARTICULAR PURPOSE.
For details see the documentation.
Scientific users of this library should cite U. Ekstrom, L. Visscher, R. Bast, A. J. Thorvaldsen and K. Ruud;
J.Chem.Theor.Comp. 2010, DOI: 10.1021/ct100117s
XCFun Version 0.99 

================================================================================

----- Orbital basis set information -----
Your calculation utilizes the basis: def2-TZVP
   F. Weigend and R. Ahlrichs, Phys. Chem. Chem. Phys. 7, 3297 (2005).

----- AuxJ basis set information -----
Your calculation utilizes the auxiliary basis: def2/J
   F. Weigend, Phys. Chem. Chem. Phys. 8, 1057 (2006).

================================================================================
                                        WARNINGS
                       Please study these warnings very carefully!
================================================================================


WARNING: Geometry Optimization
  ===> : Switching off AutoStart
         For restart on a previous wavefunction, please use MOREAD

WARNING: Minnesota functionals are quite sensitive to the integration grid.
         see SE Wheeler, KN Houk, JCTC 2010, 6, 395,
             N Mardirossian, M Head-Gordon, JCTC 2016, 12, 4303.
         DEFGRID3 seems to be a minimum grid for reliable results with these functionals!
  ===> : Please increase the integration grid!


INFO   : the flag for use of the SHARK integral package has been found!

================================================================================
                                       INPUT FILE
================================================================================
NAME = eight_one.inp
|  1> !M062X def2-tzvp PAL4 TIGHTOPT FREQ
|  2> 
|  3> %freq
|  4> Temp 298.15,10,20,50,100,6000,8000,10000
|  5> end
|  6> 
|  7> %geom
|  8> maxiter 6000
|  9> end
| 10> 
| 11> 
| 12> 
| 13> 
| 14> 
| 15> * xyz 0 1
| 16>   C   2.45791983499341     -2.80268931379768     -0.00000793519644
| 17>   C   1.28608761308438     -3.49706883370209     -0.00003643606214
| 18>   C   0.03470547919465     -2.82650100714450     -0.00011895547508
| 19>   C   -1.19909611030651     -3.52926406052669     -0.00014738304165
| 20>   C   -2.38727532547159     -2.86387815648029     -0.00022974228995
| 21>   C   -2.43307513493588     -1.44447575303296     -0.00027036473986
| 22>   C   -3.65942351028343     -0.73056692575933     -0.00034869983218
| 23>   C   -3.68143184744779      0.63183680863156     -0.00038756598292
| 24>   C   -2.47654311552349      1.38171086633990     -0.00035715694906
| 25>   C   -2.47435650264592      2.81046534061019     -0.00039831731937
| 26>   C   -1.28561443050281      3.43802142880253     -0.00036151343355
| 27>   C   -0.02057223287027      2.83388218261706     -0.00029010794623
| 28>   C   1.21086686736911      3.53893902602452     -0.00025402239824
| 29>   C   2.39489324957599      2.86551829309080     -0.00018393811888
| 30>   C   2.43517090494280      1.44582754720977     -0.00014049013964
| 31>   C   3.65975900430544      0.72697243056351     -0.00006992784603
| 32>   C   3.67546036802878     -0.63516446298208     -0.00002698908555
| 33>   C   2.46811813995863     -1.38295180399054     -0.00005240219282
| 34>   C   1.24061543792698     -0.69496199420878     -0.00012711748511
| 35>   C   1.22474219035332      0.72698621586077     -0.00017741356338
| 36>   C   -0.01566516709535      1.42103164152461     -0.00024506128700
| 37>   C   -1.24356348643455      0.69923344199718     -0.00028346088976
| 38>   C   -1.22400277498297     -0.72338676000015     -0.00023734960533
| 39>   C   0.01693487392421     -1.41913103104816     -0.00016297130775
| 40>   H   1.29296308352502     -4.58060438188898      0.00000142672494
| 41>   H   -1.17896310310274     -4.61257131284734     -0.00011513591155
| 42>   H   -3.32129405982821     -3.41317602901623     -0.00025227227744
| 43>   H   -4.58586789409211     -1.29266910376159     -0.00037146429946
| 44>   H   -4.62408845924854      1.16575491725399     -0.00044556872067
| 45>   H   -3.41518424261775      3.34878172120577     -0.00045725814046
| 46>   H   1.18854626437870      4.62103847897618     -0.00028959104089
| 47>   H   3.33130215861300      3.41052642430950     -0.00015763965944
| 48>   H   4.58800492413600      1.28586263822177     -0.00004835142171
| 49>   H   4.61660270482137     -1.17213723898180      0.00002811587814
| 50>   **                         ****END OF INPUT****
================================================================================

                       *****************************
                       * Geometry Optimization Run *
                       *****************************

Geometry optimization settings:
Update method            Update   .... BFGS
Choice of coordinates    CoordSys .... Z-matrix Internals
Initial Hessian          InHess   .... Almoef's Model

Convergence Tolerances:
Energy Change            TolE     ....  1.0000e-06 Eh
Max. Gradient            TolMAXG  ....  1.0000e-04 Eh/bohr
RMS Gradient             TolRMSG  ....  3.0000e-05 Eh/bohr
Max. Displacement        TolMAXD  ....  1.0000e-03 bohr
RMS Displacement         TolRMSD  ....  6.0000e-04 bohr
Strict Convergence                ....  False
------------------------------------------------------------------------------
                        ORCA OPTIMIZATION COORDINATE SETUP
------------------------------------------------------------------------------

The optimization will be done in new redundant internal coordinates
Making redundant internal coordinates   ...  (new redundants) done
Evaluating the initial hessian          ...  (Almloef) done
Evaluating the coordinates              ...  done
Calculating the B-matrix                .... done
Calculating the G-matrix                .... done
Diagonalizing the G-matrix              .... done
The first mode is                       ....  124
The number of degrees of freedom        ....   96

    -----------------------------------------------------------------
                    Redundant Internal Coordinates


    -----------------------------------------------------------------
         Definition                    Initial Value    Approx d2E/dq
    -----------------------------------------------------------------
      1. B(C   1,C   0)                  1.3621         0.692196   
      2. B(C   2,C   1)                  1.4197         0.560163   
      3. B(C   3,C   2)                  1.4199         0.559784   
      4. B(C   4,C   3)                  1.3618         0.692986   
      5. B(C   5,C   4)                  1.4201         0.559307   
      6. B(C   6,C   5)                  1.4190         0.561631   
      7. B(C   7,C   6)                  1.3626         0.691008   
      8. B(C   8,C   7)                  1.4192         0.561288   
      9. B(C   9,C   8)                  1.4288         0.541883   
     10. B(C  10,C   9)                  1.3442         0.739220   
     11. B(C  11,C  10)                  1.4019         0.598077   
     12. B(C  12,C  11)                  1.4190         0.561667   
     13. B(C  13,C  12)                  1.3621         0.692140   
     14. B(C  14,C  13)                  1.4203         0.559059   
     15. B(C  15,C  14)                  1.4200         0.559620   
     16. B(C  16,C  15)                  1.3622         0.691907   
     17. B(C  17,C  16)                  1.4202         0.559263   
     18. B(C  17,C   0)                  1.4198         0.560062   
     19. B(C  18,C  17)                  1.4072         0.586630   
     20. B(C  19,C  18)                  1.4220         0.555426   
     21. B(C  19,C  14)                  1.4078         0.585271   
     22. B(C  20,C  19)                  1.4214         0.556776   
     23. B(C  20,C  11)                  1.4129         0.574471   
     24. B(C  21,C  20)                  1.4243         0.550758   
     25. B(C  21,C   8)                  1.4093         0.582117   
     26. B(C  22,C  21)                  1.4228         0.553963   
     27. B(C  22,C   5)                  1.4078         0.585305   
     28. B(C  23,C  22)                  1.4227         0.554138   
     29. B(C  23,C  18)                  1.4219         0.555694   
     30. B(C  23,C   2)                  1.4075         0.585932   
     31. B(H  24,C   1)                  1.0836         0.368724   
     32. B(H  25,C   3)                  1.0835         0.368810   
     33. B(H  26,C   4)                  1.0836         0.368710   
     34. B(H  27,C   6)                  1.0836         0.368624   
     35. B(H  28,C   7)                  1.0834         0.368991   
     36. B(H  29,C   9)                  1.0839         0.368197   
     37. B(H  30,C  12)                  1.0823         0.370391   
     38. B(H  31,C  13)                  1.0835         0.368850   
     39. B(H  32,C  15)                  1.0835         0.368786   
     40. B(H  33,C  16)                  1.0836         0.368729   
     41. A(C   1,C   0,C  17)          121.0608         0.434729   
     42. A(C   0,C   1,H  24)          120.2857         0.361025   
     43. A(C   0,C   1,C   2)          121.1656         0.434743   
     44. A(C   2,C   1,H  24)          118.5487         0.348301   
     45. A(C   1,C   2,C  23)          118.9086         0.421943   
     46. A(C   1,C   2,C   3)          122.1494         0.418521   
     47. A(C   3,C   2,C  23)          118.9421         0.421892   
     48. A(C   2,C   3,H  25)          118.6008         0.348275   
     49. A(C   4,C   3,H  25)          120.3137         0.361109   
     50. A(C   2,C   3,C   4)          121.0855         0.434779   
     51. A(C   3,C   4,H  26)          120.2911         0.361092   
     52. A(C   5,C   4,H  26)          118.6117         0.348209   
     53. A(C   3,C   4,C   5)          121.0971         0.434712   
     54. A(C   4,C   5,C   6)          122.0536         0.418653   
     55. A(C   6,C   5,C  22)          118.9827         0.422060   
     56. A(C   4,C   5,C  22)          118.9637         0.421748   
     57. A(C   7,C   6,H  27)          120.3210         0.360902   
     58. A(C   5,C   6,H  27)          118.5480         0.348439   
     59. A(C   5,C   6,C   7)          121.1310         0.434813   
     60. A(C   6,C   7,C   8)          120.9710         0.434765   
     61. A(C   8,C   7,H  28)          118.5764         0.348461   
     62. A(C   6,C   7,H  28)          120.4526         0.360963   
     63. A(C   7,C   8,C   9)          121.9842         0.416254   
     64. A(C   9,C   8,C  21)          118.8777         0.418964   
     65. A(C   7,C   8,C  21)          119.1382         0.421603   
     66. A(C   8,C   9,H  29)          119.6893         0.346278   
     67. A(C  10,C   9,H  29)          122.3927         0.365012   
     68. A(C   8,C   9,C  10)          117.9180         0.437299   
     69. A(C   9,C  10,C  11)          126.6422         0.445165   
     70. A(C  12,C  11,C  20)          119.5942         0.420659   
     71. A(C  10,C  11,C  20)          115.7265         0.425408   
     72. A(C  10,C  11,C  12)          124.6793         0.423696   
     73. A(C  11,C  12,H  30)          118.6115         0.348723   
     74. A(C  11,C  12,C  13)          120.5776         0.434946   
     75. A(C  13,C  12,H  30)          120.8109         0.361297   
     76. A(C  12,C  13,H  31)          120.1705         0.361040   
     77. A(C  12,C  13,C  14)          121.2544         0.434582   
     78. A(C  14,C  13,H  31)          118.5751         0.348205   
     79. A(C  13,C  14,C  15)          122.0388         0.418352   
     80. A(C  15,C  14,C  19)          118.8814         0.421785   
     81. A(C  13,C  14,C  19)          119.0799         0.421710   
     82. A(C  14,C  15,C  16)          121.0741         0.434634   
     83. A(C  16,C  15,H  32)          120.3914         0.361009   
     84. A(C  14,C  15,H  32)          118.5345         0.348254   
     85. A(C  17,C  16,H  33)          118.5202         0.348208   
     86. A(C  15,C  16,C  17)          121.1123         0.434585   
     87. A(C  15,C  16,H  33)          120.3675         0.361000   
     88. A(C  16,C  17,C  18)          118.9576         0.421912   
     89. A(C   0,C  17,C  18)          118.8582         0.422020   
     90. A(C   0,C  17,C  16)          122.1842         0.418438   
     91. A(C  17,C  18,C  19)          119.9093         0.421394   
     92. A(C  19,C  18,C  23)          119.9773         0.417343   
     93. A(C  17,C  18,C  23)          120.1134         0.421430   
     94. A(C  18,C  19,C  20)          119.8679         0.417487   
     95. A(C  14,C  19,C  20)          120.0667         0.421402   
     96. A(C  14,C  19,C  18)          120.0654         0.421219   
     97. A(C  11,C  20,C  19)          119.4273         0.420004   
     98. A(C  19,C  20,C  21)          120.3233         0.416860   
     99. A(C  11,C  20,C  21)          120.2494         0.419190   
    100. A(C  20,C  21,C  22)          119.6606         0.416485   
    101. A(C   8,C  21,C  22)          119.7531         0.420615   
    102. A(C   8,C  21,C  20)          120.5863         0.420180   
    103. A(C  21,C  22,C  23)          120.0654         0.416938   
    104. A(C   5,C  22,C  23)          119.9106         0.421049   
    105. A(C   5,C  22,C  21)          120.0240         0.421025   
    106. A(C  18,C  23,C  22)          120.1055         0.417170   
    107. A(C   2,C  23,C  22)          120.0010         0.421129   
    108. A(C   2,C  23,C  18)          119.8934         0.421340   
    109. D(C   2,C   1,C   0,C  17)      0.0003         0.030506   
    110. D(H  24,C   1,C   0,C  17)   -179.9998         0.030506   
    111. D(C   3,C   2,C   1,H  24)      0.0003         0.021494   
    112. D(C  23,C   2,C   1,H  24)    179.9997         0.021494   
    113. D(C   3,C   2,C   1,C   0)   -179.9999         0.021494   
    114. D(C  23,C   2,C   1,C   0)     -0.0004         0.021494   
    115. D(C   4,C   3,C   2,C   1)   -179.9999         0.021464   
    116. D(H  25,C   3,C   2,C  23)    179.9999         0.021464   
    117. D(C   4,C   3,C   2,C  23)      0.0007         0.021464   
    118. D(H  25,C   3,C   2,C   1)     -0.0006         0.021464   
    119. D(C   5,C   4,C   3,H  25)    179.9999         0.033766   
    120. D(H  26,C   4,C   3,H  25)      0.0007         0.033766   
    121. D(C   5,C   4,C   3,C   2)     -0.0009         0.033766   
    122. D(H  26,C   4,C   3,C   2)    179.9999         0.033766   
    123. D(C   6,C   5,C   4,C   3)   -179.9996         0.021426   
    124. D(C   6,C   5,C   4,H  26)     -0.0005         0.021426   
    125. D(C  22,C   5,C   4,C   3)      0.0006         0.021426   
    126. D(C  22,C   5,C   4,H  26)    179.9998         0.021426   
    127. D(H  27,C   6,C   5,C  22)   -179.9999         0.021611   
    128. D(C   7,C   6,C   5,C  22)     -0.0002         0.021611   
    129. D(C   7,C   6,C   5,C   4)   -180.0000         0.021611   
    130. D(H  27,C   6,C   5,C   4)      0.0004         0.021611   
    131. D(H  28,C   7,C   6,H  27)     -0.0002         0.033558   
    132. D(C   8,C   7,C   6,H  27)    179.9999         0.033558   
    133. D(C   8,C   7,C   6,C   5)      0.0003         0.033558   
    134. D(H  28,C   7,C   6,C   5)   -179.9999         0.033558   
    135. D(C  21,C   8,C   7,H  28)   -179.9999         0.021584   
    136. D(C  21,C   8,C   7,C   6)     -0.0001         0.021584   
    137. D(C   9,C   8,C   7,H  28)      0.0001         0.021584   
    138. D(C   9,C   8,C   7,C   6)    179.9999         0.021584   
    139. D(C  10,C   9,C   8,C   7)    179.9998         0.020068   
    140. D(H  29,C   9,C   8,C  21)    179.9999         0.020068   
    141. D(H  29,C   9,C   8,C   7)     -0.0002         0.020068   
    142. D(C  10,C   9,C   8,C  21)     -0.0001         0.020068   
    143. D(C  11,C  10,C   9,H  29)   -179.9998         0.035175   
    144. D(C  11,C  10,C   9,C   8)      0.0002         0.035175   
    145. D(C  20,C  11,C  10,C   9)     -0.0004         0.022365   
    146. D(C  12,C  11,C  10,C   9)    180.0000         0.022365   
    147. D(H  30,C  12,C  11,C  20)    180.0000         0.021614   
    148. D(H  30,C  12,C  11,C  10)     -0.0004         0.021614   
    149. D(C  13,C  12,C  11,C  20)      0.0004         0.021614   
    150. D(C  13,C  12,C  11,C  10)    180.0000         0.021614   
    151. D(H  31,C  13,C  12,H  30)      0.0003         0.033677   
    152. D(H  31,C  13,C  12,C  11)    179.9999         0.033677   
    153. D(C  14,C  13,C  12,H  30)   -179.9998         0.033677   
    154. D(C  14,C  13,C  12,C  11)     -0.0002         0.033677   
    155. D(C  19,C  14,C  13,H  31)   -179.9998         0.021406   
    156. D(C  19,C  14,C  13,C  12)      0.0003         0.021406   
    157. D(C  15,C  14,C  13,H  31)     -0.0003         0.021406   
    158. D(C  15,C  14,C  13,C  12)    179.9999         0.021406   
    159. D(H  32,C  15,C  14,C  19)    179.9996         0.021451   
    160. D(H  32,C  15,C  14,C  13)      0.0000         0.021451   
    161. D(C  16,C  15,C  14,C  19)     -0.0005         0.021451   
    162. D(C  16,C  15,C  14,C  13)    179.9999         0.021451   
    163. D(H  33,C  16,C  15,H  32)     -0.0001         0.033652   
    164. D(H  33,C  16,C  15,C  14)   -179.9999         0.033652   
    165. D(C  17,C  16,C  15,H  32)    179.9999         0.033652   
    166. D(C  17,C  16,C  15,C  14)      0.0001         0.033652   
    167. D(C  18,C  17,C  16,C  15)      0.0002         0.021423   
    168. D(C   0,C  17,C  16,H  33)      0.0000         0.021423   
    169. D(C   0,C  17,C  16,C  15)   -180.0000         0.021423   
    170. D(C  18,C  17,C   0,C   1)     -0.0000         0.019513   
    171. D(C  16,C  17,C   0,C   1)   -179.9999         0.019513   
    172. D(C  18,C  17,C  16,H  33)   -179.9998         0.021423   
    173. D(C  23,C  18,C  17,C  16)    179.9996         0.023669   
    174. D(C  23,C  18,C  17,C   0)     -0.0003         0.023669   
    175. D(C  19,C  18,C  17,C  16)      0.0001         0.023669   
    176. D(C  19,C  18,C  17,C   0)   -179.9998         0.023669   
    177. D(C  20,C  19,C  18,C  23)      0.0009         0.021119   
    178. D(C  20,C  19,C  18,C  17)   -179.9996         0.021119   
    179. D(C  14,C  19,C  18,C  23)    179.9999         0.021119   
    180. D(C  14,C  19,C  18,C  17)     -0.0006         0.021119   
    181. D(C  20,C  19,C  14,C  15)    179.9999         0.023554   
    182. D(C  20,C  19,C  14,C  13)     -0.0006         0.023554   
    183. D(C  18,C  19,C  14,C  15)      0.0008         0.023554   
    184. D(C  18,C  19,C  14,C  13)   -179.9996         0.023554   
    185. D(C  21,C  20,C  19,C  18)     -0.0010         0.021225   
    186. D(C  21,C  20,C  19,C  14)    180.0000         0.021225   
    187. D(C  11,C  20,C  19,C  18)    179.9998         0.021225   
    188. D(C  11,C  20,C  19,C  14)      0.0007         0.021225   
    189. D(C  21,C  20,C  11,C  12)   -179.9999         0.022654   
    190. D(C  21,C  20,C  11,C  10)      0.0005         0.022654   
    191. D(C  19,C  20,C  11,C  12)     -0.0006         0.022654   
    192. D(C  19,C  20,C  11,C  10)    179.9997         0.022654   
    193. D(C  22,C  21,C  20,C  19)      0.0008         0.020753   
    194. D(C  22,C  21,C  20,C  11)   -180.0000         0.020753   
    195. D(C   8,C  21,C  20,C  19)   -179.9997         0.020753   
    196. D(C   8,C  21,C  20,C  11)     -0.0004         0.020753   
    197. D(C  22,C  21,C   8,C   9)    179.9998         0.023289   
    198. D(C  22,C  21,C   8,C   7)     -0.0002         0.023289   
    199. D(C  20,C  21,C   8,C   9)      0.0003         0.023289   
    200. D(C  20,C  21,C   8,C   7)   -179.9997         0.023289   
    201. D(C  23,C  22,C  21,C  20)     -0.0004         0.021004   
    202. D(C  23,C  22,C  21,C   8)    180.0000         0.021004   
    203. D(C   5,C  22,C  21,C  20)    179.9998         0.021004   
    204. D(C   5,C  22,C  21,C   8)      0.0002         0.021004   
    205. D(C  23,C  22,C   5,C   6)   -179.9998         0.023557   
    206. D(C  23,C  22,C   5,C   4)     -0.0001         0.023557   
    207. D(C  21,C  22,C   5,C   6)     -0.0000         0.023557   
    208. D(C  21,C  22,C   5,C   4)    179.9997         0.023557   
    209. D(C  18,C  23,C  22,C  21)      0.0003         0.021017   
    210. D(C   2,C  23,C  22,C  21)   -179.9999         0.021017   
    211. D(C   2,C  23,C  22,C   5)     -0.0002         0.021017   
    212. D(C  22,C  23,C  18,C  19)     -0.0005         0.021140   
    213. D(C  22,C  23,C  18,C  17)    179.9999         0.021140   
    214. D(C   2,C  23,C  18,C  19)    179.9997         0.021140   
    215. D(C   2,C  23,C  18,C  17)      0.0002         0.021140   
    216. D(C  22,C  23,C   2,C   3)     -0.0001         0.023610   
    217. D(C  22,C  23,C   2,C   1)   -179.9996         0.023610   
    218. D(C  18,C  23,C  22,C   5)   -179.9999         0.021017   
    219. D(C  18,C  23,C   2,C   3)    179.9996         0.023610   
    220. D(C  18,C  23,C   2,C   1)      0.0001         0.023610   
    -----------------------------------------------------------------

Number of atoms                         .... 34
Number of degrees of freedom            .... 220

         *************************************************************
         *                GEOMETRY OPTIMIZATION CYCLE   1            *
         *************************************************************
---------------------------------
CARTESIAN COORDINATES (ANGSTROEM)
---------------------------------
  C      2.457920   -2.802689   -0.000008
  C      1.286088   -3.497069   -0.000036
  C      0.034705   -2.826501   -0.000119
  C     -1.199096   -3.529264   -0.000147
  C     -2.387275   -2.863878   -0.000230
  C     -2.433075   -1.444476   -0.000270
  C     -3.659424   -0.730567   -0.000349
  C     -3.681432    0.631837   -0.000388
  C     -2.476543    1.381711   -0.000357
  C     -2.474357    2.810465   -0.000398
  C     -1.285614    3.438021   -0.000362
  C     -0.020572    2.833882   -0.000290
  C      1.210867    3.538939   -0.000254
  C      2.394893    2.865518   -0.000184
  C      2.435171    1.445828   -0.000140
  C      3.659759    0.726972   -0.000070
  C      3.675460   -0.635164   -0.000027
  C      2.468118   -1.382952   -0.000052
  C      1.240615   -0.694962   -0.000127
  C      1.224742    0.726986   -0.000177
  C     -0.015665    1.421032   -0.000245
  C     -1.243563    0.699233   -0.000283
  C     -1.224003   -0.723387   -0.000237
  C      0.016935   -1.419131   -0.000163
  H      1.292963   -4.580604    0.000001
  H     -1.178963   -4.612571   -0.000115
  H     -3.321294   -3.413176   -0.000252
  H     -4.585868   -1.292669   -0.000371
  H     -4.624088    1.165755   -0.000446
  H     -3.415184    3.348782   -0.000457
  H      1.188546    4.621038   -0.000290
  H      3.331302    3.410526   -0.000158
  H      4.588005    1.285863   -0.000048
  H      4.616603   -1.172137    0.000028

----------------------------
CARTESIAN COORDINATES (A.U.)
----------------------------
  NO LB      ZA    FRAG     MASS         X           Y           Z
   0 C     6.0000    0    12.011    4.644795   -5.296315   -0.000015
   1 C     6.0000    0    12.011    2.430353   -6.608502   -0.000069
   2 C     6.0000    0    12.011    0.065584   -5.341313   -0.000225
   3 C     6.0000    0    12.011   -2.265963   -6.669343   -0.000279
   4 C     6.0000    0    12.011   -4.511297   -5.411945   -0.000434
   5 C     6.0000    0    12.011   -4.597846   -2.729664   -0.000511
   6 C     6.0000    0    12.011   -6.915308   -1.380571   -0.000659
   7 C     6.0000    0    12.011   -6.956898    1.193999   -0.000732
   8 C     6.0000    0    12.011   -4.679988    2.611055   -0.000675
   9 C     6.0000    0    12.011   -4.675856    5.311010   -0.000753
  10 C     6.0000    0    12.011   -2.429459    6.496919   -0.000683
  11 C     6.0000    0    12.011   -0.038876    5.355261   -0.000548
  12 C     6.0000    0    12.011    2.288207    6.687626   -0.000480
  13 C     6.0000    0    12.011    4.525692    5.415045   -0.000348
  14 C     6.0000    0    12.011    4.601806    2.732218   -0.000265
  15 C     6.0000    0    12.011    6.915942    1.373779   -0.000132
  16 C     6.0000    0    12.011    6.945614   -1.200287   -0.000051
  17 C     6.0000    0    12.011    4.664067   -2.613400   -0.000099
  18 C     6.0000    0    12.011    2.344423   -1.313288   -0.000240
  19 C     6.0000    0    12.011    2.314427    1.373805   -0.000335
  20 C     6.0000    0    12.011   -0.029603    2.685361   -0.000463
  21 C     6.0000    0    12.011   -2.349994    1.321360   -0.000536
  22 C     6.0000    0    12.011   -2.313030   -1.367003   -0.000449
  23 C     6.0000    0    12.011    0.032002   -2.681769   -0.000308
  24 H     1.0000    0     1.008    2.443346   -8.656088    0.000003
  25 H     1.0000    0     1.008   -2.227917   -8.716497   -0.000218
  26 H     1.0000    0     1.008   -6.276336   -6.449968   -0.000477
  27 H     1.0000    0     1.008   -8.666034   -2.442791   -0.000702
  28 H     1.0000    0     1.008   -8.738261    2.202958   -0.000842
  29 H     1.0000    0     1.008   -6.453763    6.328280   -0.000864
  30 H     1.0000    0     1.008    2.246027    8.732497   -0.000547
  31 H     1.0000    0     1.008    6.295249    6.444961   -0.000298
  32 H     1.0000    0     1.008    8.670073    2.429928   -0.000091
  33 H     1.0000    0     1.008    8.724115   -2.215018    0.000053

--------------------------------
INTERNAL COORDINATES (ANGSTROEM)
--------------------------------
 C      0   0   0     0.000000000000     0.00000000     0.00000000
 C      1   0   0     1.362113679096     0.00000000     0.00000000
 C      2   1   0     1.419724783837   121.16560922     0.00000000
 C      3   2   1     1.419909247897   122.14936829   180.00012514
 C      4   3   2     1.361803310114   121.08549338   180.00014219
 C      5   4   3     1.420141122251   121.09714964     0.00000000
 C      6   5   4     1.419012388076   122.05359964   180.00035250
 C      7   6   5     1.362581485232   121.13095823   180.00004575
 C      8   7   6     1.419178621480   120.97098694     0.00000000
 C      9   8   7     1.428756148094   121.98415257   179.99993018
 C     10   9   8     1.344222585462   117.91798224   179.99982824
 C     11  10   9     1.401897284280   126.64222024     0.00000000
 C     12  11  10     1.418995211879   124.67934702   179.99996824
 C     13  12  11     1.362135809022   120.57756794   179.99997748
 C     14  13  12     1.420261984758   121.25435076     0.00000000
 C     15  14  13     1.419988977707   122.03878309   179.99987718
 C     16  15  14     1.362227386094   121.07411591   179.99989307
 C      1   2   3     1.419774138430   121.06079764     0.00000000
 C     18   1   2     1.407157726568   118.85816447     0.00000000
 C     15  14  13     1.407789236399   119.07985977     0.00000000
 C     12  11  10     1.412859063314   115.72648181     0.00000000
 C      9   8   7     1.409260162609   119.13818147     0.00000000
 C      6   5   4     1.407773173691   118.96366889     0.00000000
 C      3   2   1     1.407482165417   118.90857994     0.00000000
 H      2   1   3     1.083557362447   120.28567582   179.99985180
 H      4   3   2     1.083494320220   118.60077089     0.00000000
 H      5   4   3     1.083567787178   120.29111832   179.99989480
 H      7   6   5     1.083631881832   118.54804936     0.00000000
 H      8   7   6     1.083360529949   120.45257468   180.00011038
 H     10   9   8     1.083947122969   119.68934415     0.00000000
 H     13  12  11     1.082329634012   118.61148842     0.00000000
 H     14  13  12     1.083464585813   120.17050164   179.99994437
 H     16  15  14     1.083512229910   118.53445959     0.00000000
 H     17  16  15     1.083553719621   120.36752368   180.00008314

---------------------------
INTERNAL COORDINATES (A.U.)
---------------------------
 C      0   0   0     0.000000000000     0.00000000     0.00000000
 C      1   0   0     2.574021816758     0.00000000     0.00000000
 C      2   1   0     2.682891026993   121.16560922     0.00000000
 C      3   2   1     2.683239613547   122.14936829   180.00012514
 C      4   3   2     2.573435304383   121.08549338   180.00014219
 C      5   4   3     2.683677792575   121.09714964     0.00000000
 C      6   5   4     2.681544794105   122.05359964   180.00035250
 C      7   6   5     2.574905842241   121.13095823   180.00004575
 C      8   7   6     2.681858929714   120.97098694     0.00000000
 C      9   8   7     2.699957832055   121.98415257   179.99993018
 C     10   9   8     2.540212549554   117.91798224   179.99982824
 C     11  10   9     2.649201935177   126.64222024     0.00000000
 C     12  11  10     2.681512335797   124.67934702   179.99996824
 C     13  12  11     2.574063636258   120.57756794   179.99997748
 C     14  13  12     2.683906189613   121.25435076     0.00000000
 C     15  14  13     2.683390281052   122.03878309   179.99987718
 C     16  15  14     2.574236691845   121.07411591   179.99989307
 C      1   2   3     2.682984293657   121.06079764     0.00000000
 C     18   1   2     2.659142730445   118.85816447     0.00000000
 C     15  14  13     2.660336111077   119.07985977     0.00000000
 C     12  11  10     2.669916695492   115.72648181     0.00000000
 C      9   8   7     2.663115758776   119.13818147     0.00000000
 C      6   5   4     2.660305756958   118.96366889     0.00000000
 C      3   2   1     2.659755831016   118.90857994     0.00000000
 H      2   1   3     2.047626665418   120.28567582   179.99985180
 H      4   3   2     2.047507532875   118.60077089     0.00000000
 H      5   4   3     2.047646365305   120.29111832   179.99989480
 H      7   6   5     2.047767486649   118.54804936     0.00000000
 H      8   7   6     2.047254705903   120.45257468   180.00011038
 H     10   9   8     2.048363206063   119.68934415     0.00000000
 H     13  12  11     2.045306594911   118.61148842     0.00000000
 H     14  13  12     2.047451342988   120.17050164   179.99994437
 H     16  15  14     2.047541377284   118.53445959     0.00000000
 H     17  16  15     2.047619781476   120.36752368   180.00008314

---------------------
BASIS SET INFORMATION
---------------------
There are 2 groups of distinct atoms

 Group   1 Type C   : 11s6p2d1f contracted to 5s3p2d1f pattern {62111/411/11/1}
 Group   2 Type H   : 5s1p contracted to 3s1p pattern {311/1}

Atom   0C    basis set group =>   1
Atom   1C    basis set group =>   1
Atom   2C    basis set group =>   1
Atom   3C    basis set group =>   1
Atom   4C    basis set group =>   1
Atom   5C    basis set group =>   1
Atom   6C    basis set group =>   1
Atom   7C    basis set group =>   1
Atom   8C    basis set group =>   1
Atom   9C    basis set group =>   1
Atom  10C    basis set group =>   1
Atom  11C    basis set group =>   1
Atom  12C    basis set group =>   1
Atom  13C    basis set group =>   1
Atom  14C    basis set group =>   1
Atom  15C    basis set group =>   1
Atom  16C    basis set group =>   1
Atom  17C    basis set group =>   1
Atom  18C    basis set group =>   1
Atom  19C    basis set group =>   1
Atom  20C    basis set group =>   1
Atom  21C    basis set group =>   1
Atom  22C    basis set group =>   1
Atom  23C    basis set group =>   1
Atom  24H    basis set group =>   2
Atom  25H    basis set group =>   2
Atom  26H    basis set group =>   2
Atom  27H    basis set group =>   2
Atom  28H    basis set group =>   2
Atom  29H    basis set group =>   2
Atom  30H    basis set group =>   2
Atom  31H    basis set group =>   2
Atom  32H    basis set group =>   2
Atom  33H    basis set group =>   2
---------------------------------
AUXILIARY/J BASIS SET INFORMATION
---------------------------------
There are 2 groups of distinct atoms

 Group   1 Type C   : 12s5p4d2f1g contracted to 6s4p3d1f1g pattern {711111/2111/211/2/1}
 Group   2 Type H   : 5s2p1d contracted to 3s1p1d pattern {311/2/1}

Atom   0C    basis set group =>   1
Atom   1C    basis set group =>   1
Atom   2C    basis set group =>   1
Atom   3C    basis set group =>   1
Atom   4C    basis set group =>   1
Atom   5C    basis set group =>   1
Atom   6C    basis set group =>   1
Atom   7C    basis set group =>   1
Atom   8C    basis set group =>   1
Atom   9C    basis set group =>   1
Atom  10C    basis set group =>   1
Atom  11C    basis set group =>   1
Atom  12C    basis set group =>   1
Atom  13C    basis set group =>   1
Atom  14C    basis set group =>   1
Atom  15C    basis set group =>   1
Atom  16C    basis set group =>   1
Atom  17C    basis set group =>   1
Atom  18C    basis set group =>   1
Atom  19C    basis set group =>   1
Atom  20C    basis set group =>   1
Atom  21C    basis set group =>   1
Atom  22C    basis set group =>   1
Atom  23C    basis set group =>   1
Atom  24H    basis set group =>   2
Atom  25H    basis set group =>   2
Atom  26H    basis set group =>   2
Atom  27H    basis set group =>   2
Atom  28H    basis set group =>   2
Atom  29H    basis set group =>   2
Atom  30H    basis set group =>   2
Atom  31H    basis set group =>   2
Atom  32H    basis set group =>   2
Atom  33H    basis set group =>   2


           ************************************************************
           *        Program running with 4 parallel MPI-processes     *
           *              working on a common directory               *
           ************************************************************
------------------------------------------------------------------------------
                           ORCA GTO INTEGRAL CALCULATION
                           -- RI-GTO INTEGRALS CHOSEN --
------------------------------------------------------------------------------
------------------------------------------------------------------------------
                   ___                                                        
                  /   \      - P O W E R E D   B Y -                         
                 /     \                                                     
                 |  |  |   _    _      __       _____    __    __             
                 |  |  |  | |  | |    /  \     |  _  \  |  |  /  |          
                  \  \/   | |  | |   /    \    | | | |  |  | /  /          
                 / \  \   | |__| |  /  /\  \   | |_| |  |  |/  /          
                |  |  |   |  __  | /  /__\  \  |    /   |      \           
                |  |  |   | |  | | |   __   |  |    \   |  |\   \          
                \     /   | |  | | |  |  |  |  | |\  \  |  | \   \       
                 \___/    |_|  |_| |__|  |__|  |_| \__\ |__|  \__/        
                                                                              
                      - O R C A' S   B I G   F R I E N D -                    
                                      &                                       
                       - I N T E G R A L  F E E D E R -                       
                                                                              
 v1 FN, 2020, v2 2021                                                         
------------------------------------------------------------------------------


Reading SHARK input file eight_one.SHARKINP.tmp ... ok
----------------------
SHARK INTEGRAL PACKAGE
----------------------

Number of atoms                             ...     34
Number of basis functions                   ...    804
Number of shells                            ...    304
Maximum angular momentum                    ...      3
Integral batch strategy                     ... SHARK/LIBINT Hybrid
RI-J (if used) integral strategy            ... SPLIT-RIJ (Revised 2003 algorithm where possible)
Printlevel                                  ...      1
Contraction scheme used                     ... SEGMENTED contraction
Coulomb Range Separation                    ... NOT USED
Exchange Range Separation                   ... NOT USED
Finite Nucleus Model                        ... NOT USED
Auxiliary Coulomb fitting basis             ... AVAILABLE
   # of basis functions in Aux-J            ...   1286
   # of shells in Aux-J                     ...    410
   Maximum angular momentum in Aux-J        ...      4
Auxiliary J/K fitting basis                 ... NOT available
Auxiliary Correlation fitting basis         ... NOT available
Auxiliary 'external' fitting basis          ... NOT available
Integral threshold                          ...     2.500000e-11
Primitive cut-off                           ...     2.500000e-12
Primitive pair pre-selection threshold      ...     2.500000e-12

Calculating pre-screening integrals         ... done (  0.1 sec) Dimension = 304
Organizing shell pair data                  ... done (  0.7 sec)
Shell pair information
Total number of shell pairs                 ...     46360
Shell pairs after pre-screening             ...     35735
Total number of primitive shell pairs       ...    146628
Primitive shell pairs kept                  ...     75582
          la=0 lb=0:   8081 shell pairs
          la=1 lb=0:   9817 shell pairs
          la=1 lb=1:   2940 shell pairs
          la=2 lb=0:   5414 shell pairs
          la=2 lb=1:   3293 shell pairs
          la=2 lb=2:    929 shell pairs
          la=3 lb=0:   2542 shell pairs
          la=3 lb=1:   1588 shell pairs
          la=3 lb=2:    894 shell pairs
          la=3 lb=3:    237 shell pairs

Calculating one electron integrals          ... done (  0.2 sec)
Calculating RI/J V-Matrix + Cholesky decomp.... done (  0.2 sec)
Calculating Nuclear repulsion               ... done (  0.0 sec) ENN=   1800.823063196096 Eh

SHARK setup successfully completed in   2.4 seconds

Maximum memory used throughout the entire GTOINT-calculation: 52.5 MB


           ************************************************************
           *        Program running with 4 parallel MPI-processes     *
           *              working on a common directory               *
           ************************************************************
-------------------------------------------------------------------------------
                                 ORCA SCF
-------------------------------------------------------------------------------

------------
SCF SETTINGS
------------
Hamiltonian:
 Density Functional     Method          .... DFT(GTOs)
 Exchange Functional    Exchange        .... M062X
 Correlation Functional Correlation     .... M062X
 Gradients option       PostSCFGGA      .... off
 Hybrid DFT is turned on
   Fraction HF Exchange ScalHFX         ....  0.540000
   Scaling of DF-GGA-X  ScalDFX         ....  0.460000
   Scaling of DF-GGA-C  ScalDFC         ....  1.000000
   Scaling of DF-LDA-C  ScalLDAC        ....  1.000000
   Perturbative correction              ....  0.000000
   Density functional embedding theory  .... OFF
 RI-approximation to the Coulomb term is turned on
   Number of AuxJ basis functions       .... 1286
   RIJ-COSX (HFX calculated with COS-X)).... on


General Settings:
 Integral files         IntName         .... eight_one
 Hartree-Fock type      HFTyp           .... RHF
 Total Charge           Charge          ....    0
 Multiplicity           Mult            ....    1
 Number of Electrons    NEL             ....  154
 Basis Dimension        Dim             ....  804
 Nuclear Repulsion      ENuc            ....   1800.8230631961 Eh

Convergence Acceleration:
 DIIS                   CNVDIIS         .... on
   Start iteration      DIISMaxIt       ....    12
   Startup error        DIISStart       ....  0.200000
   # of expansion vecs  DIISMaxEq       ....     5
   Bias factor          DIISBfac        ....   1.050
   Max. coefficient     DIISMaxC        ....  10.000
 Trust-Rad. Augm. Hess. CNVTRAH         .... auto
   Auto Start mean grad. ratio tolernc. ....  1.125000
   Auto Start start iteration           ....    20
   Auto Start num. interpolation iter.  ....    10
   Max. Number of Micro iterations      ....    16
   Max. Number of Macro iterations      .... Maxiter - #DIIS iter
   Number of Davidson start vectors     ....     2
   Converg. threshold I  (grad. norm)   ....   1.000e-05
   Converg. threshold II (energy diff.) ....   1.000e-08
   Grad. Scal. Fac. for Micro threshold ....   0.100
   Minimum threshold for Micro iter.    ....   0.010
   NR start threshold (gradient norm)   ....   0.001
   Initial trust radius                 ....   0.400
   Minimum AH scaling param. (alpha)    ....   1.000
   Maximum AH scaling param. (alpha)    .... 1000.000
   Orbital update algorithm             .... Taylor
   White noise on init. David. guess    .... on
   Maximum white noise                  ....   0.010
   Quad. conv. algorithm                .... NR
 SOSCF                  CNVSOSCF        .... on
   Start iteration      SOSCFMaxIt      ....   150
   Startup grad/error   SOSCFStart      ....  0.003300
 Level Shifting         CNVShift        .... on
   Level shift para.    LevelShift      ....    0.2500
   Turn off err/grad.   ShiftErr        ....    0.0010
 Zerner damping         CNVZerner       .... off
 Static damping         CNVDamp         .... on
   Fraction old density DampFac         ....    0.7000
   Max. Damping (<1)    DampMax         ....    0.9800
   Min. Damping (>=0)   DampMin         ....    0.0000
   Turn off err/grad.   DampErr         ....    0.1000
 Fernandez-Rico         CNVRico         .... off

SCF Procedure:
 Maximum # iterations   MaxIter         ....   125
 SCF integral mode      SCFMode         .... Direct
   Integral package                     .... SHARK and LIBINT hybrid scheme
 Reset frequency        DirectResetFreq ....    20
 Integral Threshold     Thresh          ....  2.500e-11 Eh
 Primitive CutOff       TCut            ....  2.500e-12 Eh

Convergence Tolerance:
 Convergence Check Mode ConvCheckMode   .... Total+1el-Energy
 Convergence forced     ConvForced      .... 0
 Energy Change          TolE            ....  1.000e-08 Eh
 1-El. energy change                    ....  1.000e-05 Eh
 Orbital Gradient       TolG            ....  1.000e-05
 Orbital Rotation angle TolX            ....  1.000e-05
 DIIS Error             TolErr          ....  5.000e-07


Diagonalization of the overlap matrix:
Smallest eigenvalue                        ... 6.250e-07
Time for diagonalization                   ...    0.148 sec
Threshold for overlap eigenvalues          ... 1.000e-08
Number of eigenvalues below threshold      ... 0
Time for construction of square roots      ...    0.102 sec
Total time needed                          ...    0.253 sec

Time for model grid setup =    0.457 sec

------------------------------
INITIAL GUESS: MODEL POTENTIAL
------------------------------
Loading Hartree-Fock densities                     ... done
Calculating cut-offs                               ... done
Initializing the effective Hamiltonian             ... done
Setting up the integral package (SHARK)            ... done
Starting the Coulomb interaction                   ... done (   1.2 sec)
Reading the grid                                   ... done
Mapping shells                                     ... done
Starting the XC term evaluation                    ... done (   1.0 sec)
  promolecular density results
     # of electrons  =    153.982075934
     EX              =   -125.795917890
     EC              =     -5.219326399
     EX+EC           =   -131.015244289
Transforming the Hamiltonian                       ... done (   0.1 sec)
Diagonalizing the Hamiltonian                      ... done (   0.1 sec)
Back transforming the eigenvectors                 ... done (   0.0 sec)
Now organizing SCF variables                       ... done
                      ------------------
                      INITIAL GUESS DONE (   2.9 sec)
                      ------------------
-------------------
DFT GRID GENERATION
-------------------

General Integration Accuracy     IntAcc      ... 4.388
Radial Grid Type                 RadialGrid  ... OptM3 with GC (2021)
Angular Grid (max. ang.)         AngularGrid ... 4 (Lebedev-302)
Angular grid pruning method      GridPruning ... 4 (adaptive)
Weight generation scheme         WeightScheme... Becke
Basis function cutoff            BFCut       ... 1.0000e-11
Integration weight cutoff        WCut        ... 1.0000e-14
Angular grids for H and He will be reduced by one unit
Partially contracted basis set               ... off
Rotationally invariant grid construction     ... off

Total number of grid points                  ...   174238
Total number of batches                      ...     2737
Average number of points per batch           ...       63
Average number of grid points per atom       ...     5125
Time for grid setup =    1.686 sec

--------------------
COSX GRID GENERATION
--------------------

GRIDX 1
-------
General Integration Accuracy     IntAcc      ... 3.816
Radial Grid Type                 RadialGrid  ... OptM3 with GC (2021)
Angular Grid (max. ang.)         AngularGrid ... 1 (Lebedev-50)
Angular grid pruning method      GridPruning ... 4 (adaptive)
Weight generation scheme         WeightScheme... Becke
Basis function cutoff            BFCut       ... 1.0000e-11
Integration weight cutoff        WCut        ... 1.0000e-14
Angular grids for H and He will be reduced by one unit
Partially contracted basis set               ... on
Rotationally invariant grid construction     ... off

Total number of grid points                  ...    22168
Total number of batches                      ...      360
Average number of points per batch           ...       61
Average number of grid points per atom       ...      652
UseSFitting                                  ... on

GRIDX 2
-------
General Integration Accuracy     IntAcc      ... 4.020
Radial Grid Type                 RadialGrid  ... OptM3 with GC (2021)
Angular Grid (max. ang.)         AngularGrid ... 2 (Lebedev-110)
Angular grid pruning method      GridPruning ... 4 (adaptive)
Weight generation scheme         WeightScheme... Becke
Basis function cutoff            BFCut       ... 1.0000e-11
Integration weight cutoff        WCut        ... 1.0000e-14
Angular grids for H and He will be reduced by one unit
Partially contracted basis set               ... on
Rotationally invariant grid construction     ... off

Total number of grid points                  ...    49050
Total number of batches                      ...      783
Average number of points per batch           ...       62
Average number of grid points per atom       ...     1443
UseSFitting                                  ... on

GRIDX 3
-------
General Integration Accuracy     IntAcc      ... 4.338
Radial Grid Type                 RadialGrid  ... OptM3 with GC (2021)
Angular Grid (max. ang.)         AngularGrid ... 3 (Lebedev-194)
Angular grid pruning method      GridPruning ... 4 (adaptive)
Weight generation scheme         WeightScheme... Becke
Basis function cutoff            BFCut       ... 1.0000e-11
Integration weight cutoff        WCut        ... 1.0000e-14
Angular grids for H and He will be reduced by one unit
Partially contracted basis set               ... on
Rotationally invariant grid construction     ... off

Total number of grid points                  ...   107967
Total number of batches                      ...     1706
Average number of points per batch           ...       63
Average number of grid points per atom       ...     3176
UseSFitting                                  ... on

Time for X-Grid setup             =    3.630 sec

--------------
SCF ITERATIONS
--------------
ITER       Energy         Delta-E        Max-DP      RMS-DP      [F,P]     Damp
               ***  Starting incremental Fock matrix formation  ***
  0   -919.7843625310   0.000000000000 0.13328627  0.00177527  0.1713282 0.7000
  1   -920.0728230101  -0.288460479065 0.12630803  0.00153058  0.0849891 0.7000
                               ***Turning on DIIS***
  2   -920.1344713131  -0.061648302976 0.31830964  0.00395715  0.0951183 0.0000
  3   -920.3380337190  -0.203562405968 0.05328762  0.00069801  0.0541050 0.0000
  4   -920.3637803207  -0.025746601680 0.03212990  0.00038289  0.0466565 0.0000
  5   -920.3711222630  -0.007341942243 0.03393627  0.00029142  0.0035321 0.0000
                      *** Initiating the SOSCF procedure ***
                           *** Shutting down DIIS ***
                      *** Re-Reading the Fockian *** 
                      *** Removing any level shift *** 
ITER      Energy       Delta-E        Grad      Rot      Max-DP    RMS-DP
  6   -920.37143234  -0.0003100773  0.001369  0.001369  0.032096  0.000225
               *** Restarting incremental Fock matrix formation ***
  7   -920.37114131   0.0002910292  0.001049  0.007741  0.081852  0.000877
  8   -920.37109478   0.0000465268  0.005148  0.016839  0.287574  0.002441
  9   -920.37091690   0.0001778836  0.004615  0.009192  0.264407  0.002235
 10   -920.37116270  -0.0002457957  0.001054  0.003931  0.067036  0.000734
 11   -920.37118166  -0.0000189588  0.001107  0.002118  0.053861  0.000609
 12   -920.37120119  -0.0000195339  0.000089  0.000322  0.000681  0.000007
 13   -920.37120100   0.0000001927  0.000132  0.000244  0.005098  0.000054
 14   -920.37120195  -0.0000009578  0.000020  0.000059  0.000610  0.000007
 15   -920.37120193   0.0000000241  0.000022  0.000031  0.000275  0.000003
                  ***Gradient check signals convergence***
              ***Rediagonalizing the Fockian in SOSCF/NRSCF***

               *****************************************************
               *                     SUCCESS                       *
               *           SCF CONVERGED AFTER  16 CYCLES          *
               *****************************************************

Old exchange energy                            =    -69.109538113 Eh
New exchange energy                            =    -69.109367196 Eh
Exchange energy change after final integration =      0.000170917 Eh
Total energy after final integration           =   -920.371031050 Eh
Final COS-X integration done in                =    79.095 sec

----------------
TOTAL SCF ENERGY
----------------

Total Energy       :         -920.37103105 Eh          -25044.56900 eV

Components:
Nuclear Repulsion  :         1800.82306320 Eh           49002.88681 eV
Electronic Energy  :        -2721.19409425 Eh          -74047.45580 eV
One Electron Energy:        -4819.57594187 Eh         -131147.32878 eV
Two Electron Energy:         2098.38184763 Eh           57099.87298 eV
Max COSX asymmetry :            0.00000593 Eh               0.00016 eV

Virial components:
Potential Energy   :        -1836.19501625 Eh          -49965.40658 eV
Kinetic Energy     :          915.82398520 Eh           24920.83759 eV
Virial Ratio       :            2.00496498


DFT components:
N(Alpha)           :       77.000157133033 electrons
N(Beta)            :       77.000157133033 electrons
N(Total)           :      154.000314266067 electrons
E(XC)              :      -64.619764347708 Eh       
DFET-embed. en.    :        0.000000000000 Eh       

---------------
SCF CONVERGENCE
---------------

  Last Energy change         ...   -3.7362e-08  Tolerance :   1.0000e-08
  Last MAX-Density change    ...    1.3323e-15  Tolerance :   1.0000e-07
  Last RMS-Density change    ...    1.2861e-17  Tolerance :   5.0000e-09
  Last Orbital Gradient      ...    2.2588e-06  Tolerance :   1.0000e-05
  Last Orbital Rotation      ...    8.4403e-06  Tolerance :   1.0000e-05

             **** THE GBW FILE WAS UPDATED (eight_one.gbw) ****
             **** DENSITY eight_one.scfp WAS UPDATED ****
             **** ENERGY FILE WAS UPDATED (eight_one.en.tmp) ****
             **** THE GBW FILE WAS UPDATED (eight_one.gbw) ****
             **** DENSITY eight_one.scfp WAS UPDATED ****
----------------
ORBITAL ENERGIES
----------------

  NO   OCC          E(Eh)            E(eV) 
   0   2.0000     -10.592523      -288.2372 
   1   2.0000     -10.579858      -287.8926 
   2   2.0000     -10.578737      -287.8621 
   3   2.0000     -10.575996      -287.7875 
   4   2.0000     -10.570641      -287.6418 
   5   2.0000     -10.569821      -287.6195 
   6   2.0000     -10.568710      -287.5892 
   7   2.0000     -10.568307      -287.5782 
   8   2.0000     -10.567746      -287.5630 
   9   2.0000     -10.566779      -287.5367 
  10   2.0000     -10.566388      -287.5260 
  11   2.0000     -10.566038      -287.5165 
  12   2.0000     -10.564970      -287.4874 
  13   2.0000     -10.562493      -287.4200 
  14   2.0000     -10.562312      -287.4151 
  15   2.0000     -10.558597      -287.3140 
  16   2.0000     -10.557915      -287.2955 
  17   2.0000     -10.556967      -287.2697 
  18   2.0000     -10.556624      -287.2603 
  19   2.0000     -10.554502      -287.2026 
  20   2.0000     -10.553434      -287.1735 
  21   2.0000     -10.552036      -287.1355 
  22   2.0000     -10.551656      -287.1251 
  23   2.0000     -10.551039      -287.1084 
  24   2.0000      -1.031536       -28.0695 
  25   2.0000      -0.991358       -26.9762 
  26   2.0000      -0.990279       -26.9469 
  27   2.0000      -0.939015       -25.5519 
  28   2.0000      -0.937790       -25.5186 
  29   2.0000      -0.919025       -25.0079 
  30   2.0000      -0.885078       -24.0842 
  31   2.0000      -0.869830       -23.6693 
  32   2.0000      -0.853391       -23.2219 
  33   2.0000      -0.848089       -23.0777 
  34   2.0000      -0.815594       -22.1934 
  35   2.0000      -0.813340       -22.1321 
  36   2.0000      -0.734244       -19.9798 
  37   2.0000      -0.731543       -19.9063 
  38   2.0000      -0.725853       -19.7515 
  39   2.0000      -0.724412       -19.7122 
  40   2.0000      -0.711083       -19.3496 
  41   2.0000      -0.648877       -17.6569 
  42   2.0000      -0.642044       -17.4709 
  43   2.0000      -0.626261       -17.0414 
  44   2.0000      -0.617764       -16.8102 
  45   2.0000      -0.607577       -16.5330 
  46   2.0000      -0.599967       -16.3259 
  47   2.0000      -0.557731       -15.1766 
  48   2.0000      -0.548246       -14.9185 
  49   2.0000      -0.541574       -14.7370 
  50   2.0000      -0.536323       -14.5941 
  51   2.0000      -0.529459       -14.4073 
  52   2.0000      -0.520113       -14.1530 
  53   2.0000      -0.513142       -13.9633 
  54   2.0000      -0.503463       -13.6999 
  55   2.0000      -0.497339       -13.5333 
  56   2.0000      -0.488261       -13.2863 
  57   2.0000      -0.480483       -13.0746 
  58   2.0000      -0.472680       -12.8623 
  59   2.0000      -0.470937       -12.8148 
  60   2.0000      -0.468691       -12.7537 
  61   2.0000      -0.463244       -12.6055 
  62   2.0000      -0.440240       -11.9795 
  63   2.0000      -0.435463       -11.8496 
  64   2.0000      -0.427619       -11.6361 
  65   2.0000      -0.409929       -11.1547 
  66   2.0000      -0.408708       -11.1215 
  67   2.0000      -0.398401       -10.8411 
  68   2.0000      -0.390767       -10.6333 
  69   2.0000      -0.385948       -10.5022 
  70   2.0000      -0.339765        -9.2455 
  71   2.0000      -0.334281        -9.0962 
  72   2.0000      -0.318271        -8.6606 
  73   2.0000      -0.317168        -8.6306 
  74   2.0000      -0.260618        -7.0918 
  75   2.0000      -0.258324        -7.0294 
  76   2.0000      -0.214477        -5.8362 
  77   0.0000      -0.165257        -4.4969 
  78   0.0000      -0.044744        -1.2175 
  79   0.0000      -0.042412        -1.1541 
  80   0.0000      -0.002738        -0.0745 
  81   0.0000      -0.000186        -0.0051 
  82   0.0000       0.016801         0.4572 
  83   0.0000       0.049813         1.3555 
  84   0.0000       0.078159         2.1268 
  85   0.0000       0.081580         2.2199 
  86   0.0000       0.084430         2.2975 
  87   0.0000       0.089629         2.4389 
  88   0.0000       0.100643         2.7386 
  89   0.0000       0.105524         2.8715 
  90   0.0000       0.113760         3.0956 
  91   0.0000       0.117821         3.2061 
  92   0.0000       0.120023         3.2660 
  93   0.0000       0.122210         3.3255 
  94   0.0000       0.123648         3.3646 
  95   0.0000       0.134328         3.6552 
  96   0.0000       0.137365         3.7379 
  97   0.0000       0.138463         3.7678 
  98   0.0000       0.155155         4.2220 
  99   0.0000       0.164660         4.4806 
 100   0.0000       0.177979         4.8430 
 101   0.0000       0.178518         4.8577 
 102   0.0000       0.187733         5.1085 
 103   0.0000       0.189453         5.1553 
 104   0.0000       0.193286         5.2596 
 105   0.0000       0.194648         5.2966 
 106   0.0000       0.205311         5.5868 
 107   0.0000       0.209586         5.7031 
 108   0.0000       0.223425         6.0797 
 109   0.0000       0.225680         6.1411 
 110   0.0000       0.230203         6.2641 
 111   0.0000       0.231518         6.2999 
 112   0.0000       0.234178         6.3723 
 113   0.0000       0.243785         6.6337 
 114   0.0000       0.252798         6.8790 
 115   0.0000       0.259355         7.0574 
 116   0.0000       0.261021         7.1027 
 117   0.0000       0.266725         7.2580 
 118   0.0000       0.268048         7.2940 
 119   0.0000       0.271961         7.4004 
 120   0.0000       0.278907         7.5895 
 121   0.0000       0.281699         7.6654 
 122   0.0000       0.282723         7.6933 
 123   0.0000       0.282848         7.6967 
 124   0.0000       0.285861         7.7787 
 125   0.0000       0.292975         7.9723 
 126   0.0000       0.294586         8.0161 
 127   0.0000       0.302283         8.2255 
 128   0.0000       0.306607         8.3432 
 129   0.0000       0.316756         8.6194 
 130   0.0000       0.317038         8.6270 
 131   0.0000       0.318285         8.6610 
 132   0.0000       0.319366         8.6904 
 133   0.0000       0.320417         8.7190 
 134   0.0000       0.323164         8.7937 
 135   0.0000       0.332928         9.0594 
 136   0.0000       0.337386         9.1807 
 137   0.0000       0.345061         9.3896 
 138   0.0000       0.351132         9.5548 
 139   0.0000       0.353405         9.6166 
 140   0.0000       0.356730         9.7071 
 141   0.0000       0.357897         9.7389 
 142   0.0000       0.359391         9.7795 
 143   0.0000       0.370922        10.0933 
 144   0.0000       0.373846        10.1729 
 145   0.0000       0.380183        10.3453 
 146   0.0000       0.380344        10.3497 
 147   0.0000       0.381496        10.3810 
 148   0.0000       0.382850        10.4179 
 149   0.0000       0.386044        10.5048 
 150   0.0000       0.388079        10.5602 
 151   0.0000       0.393099        10.6968 
 152   0.0000       0.403670        10.9844 
 153   0.0000       0.409359        11.1392 
 154   0.0000       0.410308        11.1650 
 155   0.0000       0.413576        11.2540 
 156   0.0000       0.418857        11.3977 
 157   0.0000       0.422337        11.4924 
 158   0.0000       0.423875        11.5342 
 159   0.0000       0.434405        11.8208 
 160   0.0000       0.437972        11.9178 
 161   0.0000       0.445844        12.1320 
 162   0.0000       0.449603        12.2343 
 163   0.0000       0.456508        12.4222 
 164   0.0000       0.458179        12.4677 
 165   0.0000       0.461729        12.5643 
 166   0.0000       0.464759        12.6467 
 167   0.0000       0.469464        12.7748 
 168   0.0000       0.474655        12.9160 
 169   0.0000       0.475326        12.9343 
 170   0.0000       0.481260        13.0958 
 171   0.0000       0.496946        13.5226 
 172   0.0000       0.507405        13.8072 
 173   0.0000       0.508259        13.8304 
 174   0.0000       0.512853        13.9554 
 175   0.0000       0.513370        13.9695 
 176   0.0000       0.513912        13.9842 
 177   0.0000       0.516816        14.0633 
 178   0.0000       0.528129        14.3711 
 179   0.0000       0.530481        14.4351 
 180   0.0000       0.542177        14.7534 
 181   0.0000       0.543825        14.7982 
 182   0.0000       0.546662        14.8754 
 183   0.0000       0.548642        14.9293 
 184   0.0000       0.553206        15.0535 
 185   0.0000       0.553922        15.0730 
 186   0.0000       0.568721        15.4757 
 187   0.0000       0.570500        15.5241 
 188   0.0000       0.578554        15.7433 
 189   0.0000       0.582207        15.8427 
 190   0.0000       0.587957        15.9991 
 191   0.0000       0.604321        16.4444 
 192   0.0000       0.614814        16.7300 
 193   0.0000       0.630667        17.1613 
 194   0.0000       0.631499        17.1840 
 195   0.0000       0.634253        17.2589 
 196   0.0000       0.634761        17.2727 
 197   0.0000       0.636193        17.3117 
 198   0.0000       0.641637        17.4598 
 199   0.0000       0.647224        17.6119 
 200   0.0000       0.652274        17.7493 
 201   0.0000       0.656422        17.8622 
 202   0.0000       0.658370        17.9152 
 203   0.0000       0.662201        18.0194 
 204   0.0000       0.665735        18.1156 
 205   0.0000       0.667594        18.1662 
 206   0.0000       0.675664        18.3858 
 207   0.0000       0.679892        18.5008 
 208   0.0000       0.684409        18.6237 
 209   0.0000       0.688869        18.7451 
 210   0.0000       0.696474        18.9520 
 211   0.0000       0.698338        19.0028 
 212   0.0000       0.711920        19.3723 
 213   0.0000       0.723922        19.6989 
 214   0.0000       0.724002        19.7011 
 215   0.0000       0.729596        19.8533 
 216   0.0000       0.735307        20.0087 
 217   0.0000       0.744720        20.2649 
 218   0.0000       0.751582        20.4516 
 219   0.0000       0.763117        20.7655 
 220   0.0000       0.763960        20.7884 
 221   0.0000       0.764569        20.8050 
 222   0.0000       0.766906        20.8686 
 223   0.0000       0.773316        21.0430 
 224   0.0000       0.780821        21.2472 
 225   0.0000       0.782029        21.2801 
 226   0.0000       0.787353        21.4250 
 227   0.0000       0.788298        21.4507 
 228   0.0000       0.789288        21.4776 
 229   0.0000       0.791456        21.5366 
 230   0.0000       0.797416        21.6988 
 231   0.0000       0.803545        21.8656 
 232   0.0000       0.806028        21.9331 
 233   0.0000       0.822644        22.3853 
 234   0.0000       0.826113        22.4797 
 235   0.0000       0.830356        22.5951 
 236   0.0000       0.833925        22.6923 
 237   0.0000       0.836751        22.7692 
 238   0.0000       0.845635        23.0109 
 239   0.0000       0.850251        23.1365 
 240   0.0000       0.856631        23.3101 
 241   0.0000       0.863987        23.5103 
 242   0.0000       0.871507        23.7149 
 243   0.0000       0.871628        23.7182 
 244   0.0000       0.872814        23.7505 
 245   0.0000       0.885538        24.0967 
 246   0.0000       0.889618        24.2077 
 247   0.0000       0.894220        24.3330 
 248   0.0000       0.898357        24.4455 
 249   0.0000       0.898724        24.4555 
 250   0.0000       0.906202        24.6590 
 251   0.0000       0.909296        24.7432 
 252   0.0000       0.916642        24.9431 
 253   0.0000       0.922075        25.0909 
 254   0.0000       0.926133        25.2014 
 255   0.0000       0.936363        25.4797 
 256   0.0000       0.949791        25.8451 
 257   0.0000       0.952153        25.9094 
 258   0.0000       0.953296        25.9405 
 259   0.0000       0.968783        26.3619 
 260   0.0000       0.990968        26.9656 
 261   0.0000       0.995753        27.0958 
 262   0.0000       0.997003        27.1298 
 263   0.0000       1.015069        27.6214 
 264   0.0000       1.016329        27.6557 
 265   0.0000       1.021860        27.8062 
 266   0.0000       1.023546        27.8521 
 267   0.0000       1.051403        28.6101 
 268   0.0000       1.051984        28.6260 
 269   0.0000       1.057785        28.7838 
 270   0.0000       1.068021        29.0623 
 271   0.0000       1.074052        29.2264 
 272   0.0000       1.077093        29.3092 
 273   0.0000       1.088722        29.6256 
 274   0.0000       1.096710        29.8430 
 275   0.0000       1.098157        29.8824 
 276   0.0000       1.102833        30.0096 
 277   0.0000       1.115214        30.3465 
 278   0.0000       1.119414        30.4608 
 279   0.0000       1.126340        30.6493 
 280   0.0000       1.137053        30.9408 
 281   0.0000       1.138013        30.9669 
 282   0.0000       1.192867        32.4596 
 283   0.0000       1.196716        32.5643 
 284   0.0000       1.201140        32.6847 
 285   0.0000       1.203659        32.7532 
 286   0.0000       1.216659        33.1070 
 287   0.0000       1.217032        33.1171 
 288   0.0000       1.227811        33.4104 
 289   0.0000       1.229859        33.4662 
 290   0.0000       1.240244        33.7488 
 291   0.0000       1.243234        33.8301 
 292   0.0000       1.251089        34.0439 
 293   0.0000       1.252256        34.0756 
 294   0.0000       1.258938        34.2574 
 295   0.0000       1.272475        34.6258 
 296   0.0000       1.276426        34.7333 
 297   0.0000       1.278110        34.7792 
 298   0.0000       1.281382        34.8682 
 299   0.0000       1.287548        35.0360 
 300   0.0000       1.289319        35.0841 
 301   0.0000       1.298397        35.3312 
 302   0.0000       1.298941        35.3460 
 303   0.0000       1.308681        35.6110 
 304   0.0000       1.317992        35.8644 
 305   0.0000       1.323463        36.0133 
 306   0.0000       1.335321        36.3359 
 307   0.0000       1.337128        36.3851 
 308   0.0000       1.361145        37.0386 
 309   0.0000       1.365118        37.1468 
 310   0.0000       1.367931        37.2233 
 311   0.0000       1.369316        37.2610 
 312   0.0000       1.370210        37.2853 
 313   0.0000       1.375546        37.4305 
 314   0.0000       1.389954        37.8226 
 315   0.0000       1.397210        38.0200 
 316   0.0000       1.398073        38.0435 
 317   0.0000       1.403733        38.1975 
 318   0.0000       1.412194        38.4277 
 319   0.0000       1.414586        38.4929 
 320   0.0000       1.414700        38.4959 
 321   0.0000       1.422874        38.7184 
 322   0.0000       1.431259        38.9465 
 323   0.0000       1.455899        39.6170 
 324   0.0000       1.461217        39.7617 
 325   0.0000       1.469599        39.9898 
 326   0.0000       1.487244        40.4700 
 327   0.0000       1.490547        40.5598 
 328   0.0000       1.493795        40.6482 
 329   0.0000       1.501345        40.8537 
 330   0.0000       1.503149        40.9028 
 331   0.0000       1.511865        41.1399 
 332   0.0000       1.515755        41.2458 
 333   0.0000       1.522435        41.4276 
 334   0.0000       1.537168        41.8285 
 335   0.0000       1.539046        41.8796 
 336   0.0000       1.545010        42.0419 
 337   0.0000       1.546295        42.0768 
 338   0.0000       1.554202        42.2920 
 339   0.0000       1.566820        42.6354 
 340   0.0000       1.568050        42.6688 
 341   0.0000       1.572499        42.7899 
 342   0.0000       1.572771        42.7973 
 343   0.0000       1.580246        43.0007 
 344   0.0000       1.591088        43.2957 
 345   0.0000       1.605976        43.7008 
 346   0.0000       1.621073        44.1116 
 347   0.0000       1.629645        44.3449 
 348   0.0000       1.632748        44.4293 
 349   0.0000       1.638674        44.5906 
 350   0.0000       1.644604        44.7519 
 351   0.0000       1.646294        44.7979 
 352   0.0000       1.647774        44.8382 
 353   0.0000       1.654349        45.0171 
 354   0.0000       1.657261        45.0964 
 355   0.0000       1.659387        45.1542 
 356   0.0000       1.659914        45.1685 
 357   0.0000       1.664448        45.2919 
 358   0.0000       1.704533        46.3827 
 359   0.0000       1.711522        46.5729 
 360   0.0000       1.713987        46.6399 
 361   0.0000       1.718726        46.7689 
 362   0.0000       1.724605        46.9289 
 363   0.0000       1.728133        47.0249 
 364   0.0000       1.736374        47.2491 
 365   0.0000       1.739477        47.3336 
 366   0.0000       1.740899        47.3723 
 367   0.0000       1.746298        47.5192 
 368   0.0000       1.750687        47.6386 
 369   0.0000       1.753250        47.7084 
 370   0.0000       1.762744        47.9667 
 371   0.0000       1.767876        48.1063 
 372   0.0000       1.771166        48.1959 
 373   0.0000       1.777296        48.3627 
 374   0.0000       1.781730        48.4833 
 375   0.0000       1.799980        48.9800 
 376   0.0000       1.807065        49.1727 
 377   0.0000       1.827239        49.7217 
 378   0.0000       1.840034        50.0699 
 379   0.0000       1.860809        50.6352 
 380   0.0000       1.862683        50.6862 
 381   0.0000       1.882805        51.2337 
 382   0.0000       1.889904        51.4269 
 383   0.0000       1.900853        51.7248 
 384   0.0000       1.909477        51.9595 
 385   0.0000       1.921040        52.2742 
 386   0.0000       1.925702        52.4010 
 387   0.0000       1.939956        52.7889 
 388   0.0000       1.951002        53.0895 
 389   0.0000       1.953347        53.1533 
 390   0.0000       1.969107        53.5821 
 391   0.0000       1.974542        53.7300 
 392   0.0000       1.982564        53.9483 
 393   0.0000       1.985690        54.0334 
 394   0.0000       1.989947        54.1492 
 395   0.0000       2.002884        54.5012 
 396   0.0000       2.019871        54.9635 
 397   0.0000       2.022700        55.0405 
[...]

Temperature         ... 8000.00 K
Pressure            ... 1.00 atm
Total Mass          ... 298.34 AMU

Throughout the following assumptions are being made:
  (1) The electronic state is orbitally nondegenerate
  (2) There are no thermally accessible electronically excited states
  (3) Hindered rotations indicated by low frequency modes are not
      treated as such but are treated as vibrations and this may
      cause some error
  (4) All equations used are the standard statistical mechanics
      equations for an ideal gas
  (5) All vibrations are strictly harmonic

freq.      66.37  E(vib)   ...      15.80 
freq.      94.05  E(vib)   ...      15.76 
freq.     121.99  E(vib)   ...      15.72 
freq.     185.31  E(vib)   ...      15.63 
freq.     224.11  E(vib)   ...      15.58 
freq.     274.72  E(vib)   ...      15.51 
freq.     308.42  E(vib)   ...      15.46 
freq.     314.82  E(vib)   ...      15.45 
freq.     320.11  E(vib)   ...      15.44 
freq.     333.15  E(vib)   ...      15.43 
freq.     362.71  E(vib)   ...      15.39 
freq.     374.61  E(vib)   ...      15.37 
freq.     394.34  E(vib)   ...      15.34 
freq.     401.97  E(vib)   ...      15.33 
freq.     430.56  E(vib)   ...      15.29 
freq.     474.16  E(vib)   ...      15.23 
freq.     490.20  E(vib)   ...      15.21 
freq.     495.92  E(vib)   ...      15.20 
freq.     506.89  E(vib)   ...      15.18 
freq.     526.99  E(vib)   ...      15.16 
freq.     537.21  E(vib)   ...      15.14 
freq.     543.48  E(vib)   ...      15.13 
freq.     567.93  E(vib)   ...      15.10 
freq.     571.40  E(vib)   ...      15.10 
freq.     590.17  E(vib)   ...      15.07 
freq.     651.85  E(vib)   ...      14.98 
freq.     666.23  E(vib)   ...      14.96 
freq.     676.89  E(vib)   ...      14.95 
freq.     677.41  E(vib)   ...      14.95 
freq.     686.63  E(vib)   ...      14.94 
freq.     758.35  E(vib)   ...      14.84 
freq.     762.42  E(vib)   ...      14.83 
freq.     763.02  E(vib)   ...      14.83 
freq.     784.10  E(vib)   ...      14.80 
freq.     794.36  E(vib)   ...      14.79 
freq.     818.71  E(vib)   ...      14.76 
freq.     824.76  E(vib)   ...      14.75 
freq.     836.00  E(vib)   ...      14.73 
freq.     853.36  E(vib)   ...      14.71 
freq.     871.10  E(vib)   ...      14.69 
freq.     875.82  E(vib)   ...      14.68 
freq.     878.45  E(vib)   ...      14.68 
freq.     885.52  E(vib)   ...      14.67 
freq.     937.86  E(vib)   ...      14.59 
freq.     983.46  E(vib)   ...      14.53 
freq.     990.79  E(vib)   ...      14.52 
freq.     992.86  E(vib)   ...      14.52 
freq.     994.61  E(vib)   ...      14.52 
freq.    1003.46  E(vib)   ...      14.51 
freq.    1014.89  E(vib)   ...      14.49 
freq.    1046.00  E(vib)   ...      14.45 
freq.    1128.27  E(vib)   ...      14.34 
freq.    1147.90  E(vib)   ...      14.31 
freq.    1168.39  E(vib)   ...      14.29 
freq.    1177.62  E(vib)   ...      14.27 
freq.    1181.89  E(vib)   ...      14.27 
freq.    1202.84  E(vib)   ...      14.24 
freq.    1207.81  E(vib)   ...      14.23 
freq.    1229.56  E(vib)   ...      14.20 
freq.    1238.08  E(vib)   ...      14.19 
freq.    1240.41  E(vib)   ...      14.19 
freq.    1257.04  E(vib)   ...      14.17 
freq.    1273.37  E(vib)   ...      14.15 
freq.    1320.22  E(vib)   ...      14.09 
freq.    1336.37  E(vib)   ...      14.06 
freq.    1343.92  E(vib)   ...      14.05 
freq.    1369.64  E(vib)   ...      14.02 
freq.    1391.23  E(vib)   ...      13.99 
freq.    1396.60  E(vib)   ...      13.98 
freq.    1426.36  E(vib)   ...      13.95 
freq.    1437.09  E(vib)   ...      13.93 
freq.    1448.43  E(vib)   ...      13.92 
freq.    1462.81  E(vib)   ...      13.90 
freq.    1471.65  E(vib)   ...      13.89 
freq.    1500.03  E(vib)   ...      13.85 
freq.    1513.16  E(vib)   ...      13.83 
freq.    1537.17  E(vib)   ...      13.80 
freq.    1556.00  E(vib)   ...      13.78 
freq.    1575.56  E(vib)   ...      13.75 
freq.    1592.34  E(vib)   ...      13.73 
freq.    1655.37  E(vib)   ...      13.65 
freq.    1667.26  E(vib)   ...      13.63 
freq.    1678.55  E(vib)   ...      13.62 
freq.    1688.28  E(vib)   ...      13.61 
freq.    1692.27  E(vib)   ...      13.60 
freq.    3174.45  E(vib)   ...      11.79 
freq.    3175.34  E(vib)   ...      11.79 
freq.    3203.29  E(vib)   ...      11.76 
freq.    3204.03  E(vib)   ...      11.76 
freq.    3211.44  E(vib)   ...      11.75 
freq.    3212.61  E(vib)   ...      11.75 
freq.    3220.99  E(vib)   ...      11.74 
freq.    3221.74  E(vib)   ...      11.73 
freq.    3235.99  E(vib)   ...      11.72 
freq.    3236.70  E(vib)   ...      11.72 

------------
INNER ENERGY
------------

The inner energy is: U= E(el) + E(ZPE) + E(vib) + E(rot) + E(trans)
    E(el)   - is the total energy from the electronic structure calculation
              = E(kin-el) + E(nuc-el) + E(el-el) + E(nuc-nuc)
    E(ZPE)  - the the zero temperature vibrational energy from the frequency calculation
    E(vib)  - the the finite temperature correction to E(ZPE) due to population
              of excited vibrational states
    E(rot)  - is the rotational thermal energy
    E(trans)- is the translational thermal energy

Summary of contributions to the inner energy U:
Electronic energy                ...   -920.37641149 Eh
Zero point energy                ...      0.25321955 Eh     158.90 kcal/mol
Thermal vibrational correction   ...      2.16679973 Eh    1359.68 kcal/mol
Thermal rotational correction    ...      0.03800158 Eh      23.85 kcal/mol
Thermal translational correction ...      0.03800158 Eh      23.85 kcal/mol
-----------------------------------------------------------------------
Total thermal energy                   -917.88038905 Eh


Summary of corrections to the electronic energy:
(perhaps to be used in another calculation)
Total thermal correction                  2.24280289 Eh    1407.38 kcal/mol
Non-thermal (ZPE) correction              0.25321955 Eh     158.90 kcal/mol
-----------------------------------------------------------------------
Total correction                          2.49602244 Eh    1566.27 kcal/mol


--------
ENTHALPY
--------

The enthalpy is H = U + kB*T
                kB is Boltzmann's constant
Total free energy                 ...   -917.88038905 Eh 
Thermal Enthalpy correction       ...      0.02533514 Eh      15.90 kcal/mol
-----------------------------------------------------------------------
Total Enthalpy                    ...   -917.85505391 Eh


Note: Only C1 symmetry has been detected, increase convergence thresholds 
      if your molecule has a higher symmetry. Symmetry factor of 1.0 is   
      used for the rotational entropy correction. 
 

Note: Rotational entropy computed according to Herzberg 
Infrared and Raman Spectra, Chapter V,1, Van Nostrand Reinhold, 1945 
Point Group:  C1, Symmetry Number:   1  
Rotational constants in cm-1:     0.011683     0.011145     0.005704 

Vibrational entropy computed according to the QRRHO of S. Grimme
Chem.Eur.J. 2012 18 9955


-------
ENTROPY
-------

The entropy contributions are T*S = T*(S(el)+S(vib)+S(rot)+S(trans))
     S(el)   - electronic entropy
     S(vib)  - vibrational entropy
     S(rot)  - rotational entropy
     S(trans)- translational entropy
The entropies will be listed as multiplied by the temperature to get
units of energy

Electronic entropy                ...      0.00000000 Eh      0.00 kcal/mol
Vibrational entropy               ...      6.67645447 Eh   4189.53 kcal/mol
Rotational entropy                ...      0.55897681 Eh    350.76 kcal/mol
Translational entropy             ...      0.75624431 Eh    474.55 kcal/mol
-----------------------------------------------------------------------
Final entropy term                ...      7.99167559 Eh   5014.84 kcal/mol

In case the symmetry of your molecule has not been determined correctly
or in case you have a reason to use a different symmetry number we print 
out the resulting rotational entropy values for sn=1,12 :
 --------------------------------------------------------
|  sn= 1 | S(rot)=       0.55897681 Eh    350.76 kcal/mol|
|  sn= 2 | S(rot)=       0.54141635 Eh    339.74 kcal/mol|
|  sn= 3 | S(rot)=       0.53114414 Eh    333.30 kcal/mol|
|  sn= 4 | S(rot)=       0.52385589 Eh    328.72 kcal/mol|
|  sn= 5 | S(rot)=       0.51820269 Eh    325.18 kcal/mol|
|  sn= 6 | S(rot)=       0.51358368 Eh    322.28 kcal/mol|
|  sn= 7 | S(rot)=       0.50967837 Eh    319.83 kcal/mol|
|  sn= 8 | S(rot)=       0.50629543 Eh    317.70 kcal/mol|
|  sn= 9 | S(rot)=       0.50331147 Eh    315.83 kcal/mol|
|  sn=10 | S(rot)=       0.50064223 Eh    314.16 kcal/mol|
|  sn=11 | S(rot)=       0.49822760 Eh    312.64 kcal/mol|
|  sn=12 | S(rot)=       0.49602322 Eh    311.26 kcal/mol|
 --------------------------------------------------------


-------------------
GIBBS FREE ENERGY
-------------------

The Gibbs free energy is G = H - T*S

Total enthalpy                    ...   -917.85505391 Eh 
Total entropy correction          ...     -7.99167559 Eh  -5014.84 kcal/mol
-----------------------------------------------------------------------
Final Gibbs free energy         ...   -925.84672950 Eh

For completeness - the Gibbs free energy minus the electronic energy
G-E(el)                           ...     -5.47031801 Eh  -3432.67 kcal/mol


The first frequency considered to be a vibration is 7
The total number of vibrations considered is 95


--------------------------
THERMOCHEMISTRY AT 10000.00K
--------------------------

Temperature         ... 10000.00 K
Pressure            ... 1.00 atm
Total Mass          ... 298.34 AMU

Throughout the following assumptions are being made:
  (1) The electronic state is orbitally nondegenerate
  (2) There are no thermally accessible electronically excited states
  (3) Hindered rotations indicated by low frequency modes are not
      treated as such but are treated as vibrations and this may
      cause some error
  (4) All equations used are the standard statistical mechanics
      equations for an ideal gas
  (5) All vibrations are strictly harmonic

freq.      66.37  E(vib)   ...      19.78 
freq.      94.05  E(vib)   ...      19.74 
freq.     121.99  E(vib)   ...      19.70 
freq.     185.31  E(vib)   ...      19.61 
freq.     224.11  E(vib)   ...      19.55 
freq.     274.72  E(vib)   ...      19.48 
freq.     308.42  E(vib)   ...      19.43 
freq.     314.82  E(vib)   ...      19.43 
freq.     320.11  E(vib)   ...      19.42 
freq.     333.15  E(vib)   ...      19.40 
freq.     362.71  E(vib)   ...      19.36 
freq.     374.61  E(vib)   ...      19.34 
freq.     394.34  E(vib)   ...      19.31 
freq.     401.97  E(vib)   ...      19.30 
freq.     430.56  E(vib)   ...      19.26 
freq.     474.16  E(vib)   ...      19.20 
freq.     490.20  E(vib)   ...      19.18 
freq.     495.92  E(vib)   ...      19.17 
freq.     506.89  E(vib)   ...      19.16 
freq.     526.99  E(vib)   ...      19.13 
freq.     537.21  E(vib)   ...      19.11 
freq.     543.48  E(vib)   ...      19.11 
freq.     567.93  E(vib)   ...      19.07 
freq.     571.40  E(vib)   ...      19.07 
freq.     590.17  E(vib)   ...      19.04 
freq.     651.85  E(vib)   ...      18.96 
freq.     666.23  E(vib)   ...      18.94 
freq.     676.89  E(vib)   ...      18.92 
freq.     677.41  E(vib)   ...      18.92 
freq.     686.63  E(vib)   ...      18.91 
freq.     758.35  E(vib)   ...      18.81 
freq.     762.42  E(vib)   ...      18.80 
freq.     763.02  E(vib)   ...      18.80 
freq.     784.10  E(vib)   ...      18.77 
freq.     794.36  E(vib)   ...      18.76 
freq.     818.71  E(vib)   ...      18.73 
freq.     824.76  E(vib)   ...      18.72 
freq.     836.00  E(vib)   ...      18.70 
freq.     853.36  E(vib)   ...      18.68 
freq.     871.10  E(vib)   ...      18.65 
freq.     875.82  E(vib)   ...      18.65 
freq.     878.45  E(vib)   ...      18.64 
freq.     885.52  E(vib)   ...      18.63 
freq.     937.86  E(vib)   ...      18.56 
freq.     983.46  E(vib)   ...      18.50 
freq.     990.79  E(vib)   ...      18.49 
freq.     992.86  E(vib)   ...      18.49 
freq.     994.61  E(vib)   ...      18.48 
freq.    1003.46  E(vib)   ...      18.47 
freq.    1014.89  E(vib)   ...      18.46 
freq.    1046.00  E(vib)   ...      18.41 
freq.    1128.27  E(vib)   ...      18.30 
freq.    1147.90  E(vib)   ...      18.28 
freq.    1168.39  E(vib)   ...      18.25 
freq.    1177.62  E(vib)   ...      18.24 
freq.    1181.89  E(vib)   ...      18.23 
freq.    1202.84  E(vib)   ...      18.20 
freq.    1207.81  E(vib)   ...      18.20 
freq.    1229.56  E(vib)   ...      18.17 
freq.    1238.08  E(vib)   ...      18.16 
freq.    1240.41  E(vib)   ...      18.15 
freq.    1257.04  E(vib)   ...      18.13 
freq.    1273.37  E(vib)   ...      18.11 
freq.    1320.22  E(vib)   ...      18.04 
freq.    1336.37  E(vib)   ...      18.02 
freq.    1343.92  E(vib)   ...      18.01 
freq.    1369.64  E(vib)   ...      17.98 
freq.    1391.23  E(vib)   ...      17.95 
freq.    1396.60  E(vib)   ...      17.94 
freq.    1426.36  E(vib)   ...      17.90 
freq.    1437.09  E(vib)   ...      17.89 
freq.    1448.43  E(vib)   ...      17.87 
freq.    1462.81  E(vib)   ...      17.85 
freq.    1471.65  E(vib)   ...      17.84 
freq.    1500.03  E(vib)   ...      17.81 
freq.    1513.16  E(vib)   ...      17.79 
freq.    1537.17  E(vib)   ...      17.76 
freq.    1556.00  E(vib)   ...      17.73 
freq.    1575.56  E(vib)   ...      17.71 
freq.    1592.34  E(vib)   ...      17.68 
freq.    1655.37  E(vib)   ...      17.60 
freq.    1667.26  E(vib)   ...      17.58 
freq.    1678.55  E(vib)   ...      17.57 
freq.    1688.28  E(vib)   ...      17.56 
freq.    1692.27  E(vib)   ...      17.55 
freq.    3174.45  E(vib)   ...      15.68 
freq.    3175.34  E(vib)   ...      15.68 
freq.    3203.29  E(vib)   ...      15.64 
freq.    3204.03  E(vib)   ...      15.64 
freq.    3211.44  E(vib)   ...      15.63 
freq.    3212.61  E(vib)   ...      15.63 
freq.    3220.99  E(vib)   ...      15.62 
freq.    3221.74  E(vib)   ...      15.62 
freq.    3235.99  E(vib)   ...      15.60 
freq.    3236.70  E(vib)   ...      15.60 

------------
INNER ENERGY
------------

The inner energy is: U= E(el) + E(ZPE) + E(vib) + E(rot) + E(trans)
    E(el)   - is the total energy from the electronic structure calculation
              = E(kin-el) + E(nuc-el) + E(el-el) + E(nuc-nuc)
    E(ZPE)  - the the zero temperature vibrational energy from the frequency calculation
    E(vib)  - the the finite temperature correction to E(ZPE) due to population
              of excited vibrational states
    E(rot)  - is the rotational thermal energy
    E(trans)- is the translational thermal energy

Summary of contributions to the inner energy U:
Electronic energy                ...   -920.37641149 Eh
Zero point energy                ...      0.25321955 Eh     158.90 kcal/mol
Thermal vibrational correction   ...      2.76588593 Eh    1735.62 kcal/mol
Thermal rotational correction    ...      0.04750198 Eh      29.81 kcal/mol
Thermal translational correction ...      0.04750198 Eh      29.81 kcal/mol
-----------------------------------------------------------------------
Total thermal energy                   -917.26230205 Eh


Summary of corrections to the electronic energy:
(perhaps to be used in another calculation)
Total thermal correction                  2.86088989 Eh    1795.23 kcal/mol
Non-thermal (ZPE) correction              0.25321955 Eh     158.90 kcal/mol
-----------------------------------------------------------------------
Total correction                          3.11410944 Eh    1954.13 kcal/mol


--------
ENTHALPY
--------

The enthalpy is H = U + kB*T
                kB is Boltzmann's constant
Total free energy                 ...   -917.26230205 Eh 
Thermal Enthalpy correction       ...      0.03166893 Eh      19.87 kcal/mol
-----------------------------------------------------------------------
Total Enthalpy                    ...   -917.23063313 Eh


Note: Only C1 symmetry has been detected, increase convergence thresholds 
      if your molecule has a higher symmetry. Symmetry factor of 1.0 is   
      used for the rotational entropy correction. 
 

Note: Rotational entropy computed according to Herzberg 
Infrared and Raman Spectra, Chapter V,1, Van Nostrand Reinhold, 1945 
Point Group:  C1, Symmetry Number:   1  
Rotational constants in cm-1:     0.011683     0.011145     0.005704 

Vibrational entropy computed according to the QRRHO of S. Grimme
Chem.Eur.J. 2012 18 9955


-------
ENTROPY
-------

The entropy contributions are T*S = T*(S(el)+S(vib)+S(rot)+S(trans))
     S(el)   - electronic entropy
     S(vib)  - vibrational entropy
     S(rot)  - rotational entropy
     S(trans)- translational entropy
The entropies will be listed as multiplied by the temperature to get
units of energy

Electronic entropy                ...      0.00000000 Eh      0.00 kcal/mol
Vibrational entropy               ...      9.00713840 Eh   5652.05 kcal/mol
Rotational entropy                ...      0.70932077 Eh    445.10 kcal/mol
Translational entropy             ...      0.96297166 Eh    604.27 kcal/mol
-----------------------------------------------------------------------
Final entropy term                ...     10.67943083 Eh   6701.43 kcal/mol

In case the symmetry of your molecule has not been determined correctly
or in case you have a reason to use a different symmetry number we print 
out the resulting rotational entropy values for sn=1,12 :
 --------------------------------------------------------
|  sn= 1 | S(rot)=       0.70932077 Eh    445.10 kcal/mol|
|  sn= 2 | S(rot)=       0.68737020 Eh    431.33 kcal/mol|
|  sn= 3 | S(rot)=       0.67452993 Eh    423.27 kcal/mol|
|  sn= 4 | S(rot)=       0.66541962 Eh    417.56 kcal/mol|
|  sn= 5 | S(rot)=       0.65835312 Eh    413.12 kcal/mol|
|  sn= 6 | S(rot)=       0.65257936 Eh    409.50 kcal/mol|
|  sn= 7 | S(rot)=       0.64769772 Eh    406.44 kcal/mol|
|  sn= 8 | S(rot)=       0.64346905 Eh    403.78 kcal/mol|
|  sn= 9 | S(rot)=       0.63973910 Eh    401.44 kcal/mol|
|  sn=10 | S(rot)=       0.63640254 Eh    399.35 kcal/mol|
|  sn=11 | S(rot)=       0.63338426 Eh    397.45 kcal/mol|
|  sn=12 | S(rot)=       0.63062879 Eh    395.72 kcal/mol|
 --------------------------------------------------------


-------------------
GIBBS FREE ENERGY
-------------------

The Gibbs free energy is G = H - T*S

Total enthalpy                    ...   -917.23063313 Eh 
Total entropy correction          ...    -10.67943083 Eh  -6701.43 kcal/mol
-----------------------------------------------------------------------
Final Gibbs free energy         ...   -927.91006396 Eh

For completeness - the Gibbs free energy minus the electronic energy
G-E(el)                           ...     -7.53365246 Eh  -4727.43 kcal/mol


Timings for individual modules:

Sum of individual times         ...    30708.048 sec (= 511.801 min)
GTO integral calculation        ...       28.608 sec (=   0.477 min)   0.1 %
SCF iterations                  ...     5756.509 sec (=  95.942 min)  18.7 %
SCF Gradient evaluation         ...     1416.044 sec (=  23.601 min)   4.6 %
Geometry relaxation             ...        2.133 sec (=   0.036 min)   0.0 %
Analytical frequency calculation...    23504.754 sec (= 391.746 min)  76.5 %
                             ****ORCA TERMINATED NORMALLY****
TOTAL RUN TIME: 0 days 8 hours 31 minutes 57 seconds 734 msec
