
                                 *****************
                                 * O   R   C   A *
                                 *****************

                                            #,                                       
                                            ###                                      
                                            ####                                     
                                            #####                                    
                                            ######                                   
                                           ########,                                 
                                     ,,################,,,,,                         
                               ,,#################################,,                 
                          ,,##########################################,,             
                       ,#########################################, ''#####,          
                    ,#############################################,,   '####,        
                  ,##################################################,,,,####,       
                ,###########''''           ''''###############################       
              ,#####''   ,,,,##########,,,,          '''####'''          '####       
            ,##' ,,,,###########################,,,                        '##       
           ' ,,###''''                  '''############,,,                           
         ,,##''                                '''############,,,,        ,,,,,,###''
      ,#''                                            '''#######################'''  
     '                                                          ''''####''''         
             ,#######,   #######,   ,#######,      ##                                
            ,#'     '#,  ##    ##  ,#'     '#,    #''#        ######   ,####,        
            ##       ##  ##   ,#'  ##            #'  '#       #        #'  '#        
            ##       ##  #######   ##           ,######,      #####,   #    #        
            '#,     ,#'  ##    ##  '#,     ,#' ,#      #,         ##   #,  ,#        
             '#######'   ##     ##  '#######'  #'      '#     #####' # '####'        



                  #######################################################
                  #                        -***-                        #
                  #          Department of theory and spectroscopy      #
                  #    Directorship and core code : Frank Neese         #
                  #        Max Planck Institute fuer Kohlenforschung    #
                  #                Kaiser Wilhelm Platz 1               #
                  #                 D-45470 Muelheim/Ruhr               #
                  #                      Germany                        #
                  #                                                     #
                  #                  All rights reserved                #
                  #                        -***-                        #
                  #######################################################



                         Program Version 5.0.4 -  RELEASE  -

 With contributions from (in alphabetic order):
   Daniel Aravena         : Magnetic Suceptibility
   Michael Atanasov       : Ab Initio Ligand Field Theory (pilot matlab implementation)
   Alexander A. Auer      : GIAO ZORA, VPT2 properties, NMR spectrum
   Ute Becker             : Parallelization
   Giovanni Bistoni       : ED, misc. LED, open-shell LED, HFLD
   Martin Brehm           : Molecular dynamics
   Dmytro Bykov           : SCF Hessian
   Vijay G. Chilkuri      : MRCI spin determinant printing, contributions to CSF-ICE
   Dipayan Datta          : RHF DLPNO-CCSD density
   Achintya Kumar Dutta   : EOM-CC, STEOM-CC
   Dmitry Ganyushin       : Spin-Orbit,Spin-Spin,Magnetic field MRCI
   Miquel Garcia          : C-PCM and meta-GGA Hessian, CC/C-PCM, Gaussian charge scheme
   Yang Guo               : DLPNO-NEVPT2, F12-NEVPT2, CIM, IAO-localization
   Andreas Hansen         : Spin unrestricted coupled pair/coupled cluster methods
   Benjamin Helmich-Paris : MC-RPA, TRAH-SCF, COSX integrals
   Lee Huntington         : MR-EOM, pCC
   Robert Izsak           : Overlap fitted RIJCOSX, COSX-SCS-MP3, EOM
   Marcus Kettner         : VPT2
   Christian Kollmar      : KDIIS, OOCD, Brueckner-CCSD(T), CCSD density, CASPT2, CASPT2-K
   Simone Kossmann        : Meta GGA functionals, TD-DFT gradient, OOMP2, MP2 Hessian
   Martin Krupicka        : Initial AUTO-CI
   Lucas Lang             : DCDCAS
   Marvin Lechner         : AUTO-CI (C++ implementation), FIC-MRCC
   Dagmar Lenk            : GEPOL surface, SMD
   Dimitrios Liakos       : Extrapolation schemes; Compound Job, initial MDCI parallelization
   Dimitrios Manganas     : Further ROCIS development; embedding schemes
   Dimitrios Pantazis     : SARC Basis sets
   Anastasios Papadopoulos: AUTO-CI, single reference methods and gradients
   Taras Petrenko         : DFT Hessian,TD-DFT gradient, ASA, ECA, R-Raman, ABS, FL, XAS/XES, NRVS
   Peter Pinski           : DLPNO-MP2, DLPNO-MP2 Gradient
   Christoph Reimann      : Effective Core Potentials
   Marius Retegan         : Local ZFS, SOC
   Christoph Riplinger    : Optimizer, TS searches, QM/MM, DLPNO-CCSD(T), (RO)-DLPNO pert. Triples
   Tobias Risthaus        : Range-separated hybrids, TD-DFT gradient, RPA, STAB
   Michael Roemelt        : Original ROCIS implementation
   Masaaki Saitow         : Open-shell DLPNO-CCSD energy and density
   Barbara Sandhoefer     : DKH picture change effects
   Avijit Sen             : IP-ROCIS
   Kantharuban Sivalingam : CASSCF convergence, NEVPT2, FIC-MRCI
   Bernardo de Souza      : ESD, SOC TD-DFT
   Georgi Stoychev        : AutoAux, RI-MP2 NMR, DLPNO-MP2 response
   Willem Van den Heuvel  : Paramagnetic NMR
   Boris Wezisla          : Elementary symmetry handling
   Frank Wennmohs         : Technical directorship


 We gratefully acknowledge several colleagues who have allowed us to
 interface, adapt or use parts of their codes:
   Stefan Grimme, W. Hujo, H. Kruse, P. Pracht,  : VdW corrections, initial TS optimization,
                  C. Bannwarth, S. Ehlert          DFT functionals, gCP, sTDA/sTD-DF
   Ed Valeev, F. Pavosevic, A. Kumar             : LibInt (2-el integral package), F12 methods
   Garnet Chan, S. Sharma, J. Yang, R. Olivares  : DMRG
   Ulf Ekstrom                                   : XCFun DFT Library
   Mihaly Kallay                                 : mrcc  (arbitrary order and MRCC methods)
   Jiri Pittner, Ondrej Demel                    : Mk-CCSD
   Frank Weinhold                                : gennbo (NPA and NBO analysis)
   Christopher J. Cramer and Donald G. Truhlar   : smd solvation model
   Lars Goerigk                                  : TD-DFT with DH, B97 family of functionals
   V. Asgeirsson, H. Jonsson                     : NEB implementation
   FAccTs GmbH                                   : IRC, NEB, NEB-TS, DLPNO-Multilevel, CI-OPT
                                                   MM, QMMM, 2- and 3-layer-ONIOM, Crystal-QMMM,
                                                   LR-CPCM, SF, NACMEs, symmetry and pop. for TD-DFT,
                                                   nearIR, NL-DFT gradient (VV10), updates on ESD,
                                                   ML-optimized integration grids
   S Lehtola, MJT Oliveira, MAL Marques          : LibXC Library
   Liviu Ungur et al                             : ANISO software


 Your calculation uses the libint2 library for the computation of 2-el integrals
 For citations please refer to: http://libint.valeyev.net

 Your ORCA version has been built with support for libXC version: 5.1.0
 For citations please refer to: https://tddft.org/programs/libxc/

 This ORCA versions uses:
   CBLAS   interface :  Fast vector & matrix operations
   LAPACKE interface :  Fast linear algebra routines
   Shared memory     :  Shared parallel matrices


XCFun DFT library Copyright 2009-2010 Ulf Ekstrom and contributors.
See http://admol.org/xcfun for more information.
This is free software; see the source code for copying conditions.
There is ABSOLUTELY NO WARRANTY; not even for MERCHANTABILITY or FITNESS FOR A PARTICULAR PURPOSE.
For details see the documentation.
Scientific users of this library should cite U. Ekstrom, L. Visscher, R. Bast, A. J. Thorvaldsen and K. Ruud;
J.Chem.Theor.Comp. 2010, DOI: 10.1021/ct100117s
XCFun Version 0.99 

================================================================================

----- Orbital basis set information -----
Your calculation utilizes the basis: def2-TZVP
   F. Weigend and R. Ahlrichs, Phys. Chem. Chem. Phys. 7, 3297 (2005).

----- AuxJ basis set information -----
Your calculation utilizes the auxiliary basis: def2/J
   F. Weigend, Phys. Chem. Chem. Phys. 8, 1057 (2006).

================================================================================
                                        WARNINGS
                       Please study these warnings very carefully!
================================================================================


WARNING: your system is open-shell and RHF/RKS was chosen
  ===> : WILL SWITCH to UHF/UKS


WARNING: Geometry Optimization
  ===> : Switching off AutoStart
         For restart on a previous wavefunction, please use MOREAD

WARNING: Minnesota functionals are quite sensitive to the integration grid.
         see SE Wheeler, KN Houk, JCTC 2010, 6, 395,
             N Mardirossian, M Head-Gordon, JCTC 2016, 12, 4303.
         DEFGRID3 seems to be a minimum grid for reliable results with these functionals!
  ===> : Please increase the integration grid!


INFO   : the flag for use of the SHARK integral package has been found!

================================================================================
                                       INPUT FILE
================================================================================
NAME = eight_seven_eleven_position.inp
|  1> !M062X DEF2-TZVP OPT FREQ PAL4
|  2> %freq
|  3> Temp 298.15,10,20,50,100,6000,8000,10000
|  4> end
|  5> 
|  6> * xyz 0 2
|  7>   C   2.45025911436908     -2.79090177790463     -0.00000982964919
|  8>   C   1.27956958510907     -3.48660258649203     -0.00004173389427
|  9>   C   0.03020658595300     -2.81550364249800     -0.00011862088441
| 10>   C   -1.20107819729747     -3.52526706874898     -0.00015240048714
| 11>   C   -2.38858789470557     -2.86502728739536     -0.00022482001470
| 12>   C   -2.44105509445554     -1.44398386157020     -0.00026954248287
| 13>   C   -3.67663052786843     -0.75322560258363     -0.00034505741295
| 14>   C   -3.72620674307354      0.61012331224561     -0.00038725318909
| 15>   C   -2.53312282987023      1.35934632798929     -0.00035605272073
| 16>   C   -2.34753337498203      2.75391254959518     -0.00038934949593
| 17>   C   -1.29670155377861      3.37861761727772     -0.00036267557578
| 18>   C   0.01685582404701      2.87468391601134     -0.00029170556996
| 19>   C   1.24552120765708      3.56426857632077     -0.00025954932536
| 20>   C   2.41910897755889      2.86883891663109     -0.00018686269248
| 21>   C   2.43513201634147      1.45348005475609     -0.00014272162428
| 22>   C   3.65821453508405      0.72792377916697     -0.00006423037791
| 23>   C   3.67026889114169     -0.63084151991298     -0.00002152358643
| 24>   C   2.45819623267264     -1.37288294365309     -0.00005292192897
| 25>   C   1.23136494255913     -0.68205099072942     -0.00012978920390
| 26>   C   1.21552338299244      0.74291881045426     -0.00017515439035
| 27>   C   -0.02157562885261      1.44516062565708     -0.00024971485033
| 28>   C   -1.25909575897147      0.70970393432854     -0.00028207962759
| 29>   C   -1.23391475435778     -0.71245727770562     -0.00023706797792
| 30>   C   0.01012694395947     -1.40778803226763     -0.00016249723364
| 31>   H   3.39883583341171     -3.31417365841427      0.00004947598548
| 32>   H   1.28571717640132     -4.56990075715492     -0.00000797167050
| 33>   H   -1.17451584360617     -4.60820675048880     -0.00011872516592
| 34>   H   -3.32207671532680     -3.41465497856564     -0.00025023814909
| 35>   H   -4.59253679048289     -1.33153116975716     -0.00036952032608
| 36>   H   -4.67219071827069      1.13379875695350     -0.00044562775965
| 37>   H   1.23798091724791      4.64550021059141     -0.00029268019975
| 38>   H   3.36490179443101      3.39691648656407     -0.00016139178048
| 39>   H   4.60871019346374     -1.17195606478706      0.00003963734661
| 40> **                         ****END OF INPUT****
================================================================================

                       *****************************
                       * Geometry Optimization Run *
                       *****************************

Geometry optimization settings:
Update method            Update   .... BFGS
Choice of coordinates    CoordSys .... Z-matrix Internals
Initial Hessian          InHess   .... Almoef's Model

Convergence Tolerances:
Energy Change            TolE     ....  5.0000e-06 Eh
Max. Gradient            TolMAXG  ....  3.0000e-04 Eh/bohr
RMS Gradient             TolRMSG  ....  1.0000e-04 Eh/bohr
Max. Displacement        TolMAXD  ....  4.0000e-03 bohr
RMS Displacement         TolRMSD  ....  2.0000e-03 bohr
Strict Convergence                ....  False
------------------------------------------------------------------------------
                        ORCA OPTIMIZATION COORDINATE SETUP
------------------------------------------------------------------------------

The optimization will be done in new redundant internal coordinates
Making redundant internal coordinates   ...  (new redundants) done
Evaluating the initial hessian          ...  (Almloef) done
Evaluating the coordinates              ...  done
Calculating the B-matrix                .... done
Calculating the G-matrix                .... done
Diagonalizing the G-matrix              .... done
The first mode is                       ....  121
The number of degrees of freedom        ....   93

    -----------------------------------------------------------------
                    Redundant Internal Coordinates


    -----------------------------------------------------------------
         Definition                    Initial Value    Approx d2E/dq
    -----------------------------------------------------------------
      1. B(C   1,C   0)                  1.3618         0.692981   
      2. B(C   2,C   1)                  1.4182         0.563317   
      3. B(C   3,C   2)                  1.4212         0.557123   
      4. B(C   4,C   3)                  1.3587         0.700903   
      5. B(C   5,C   4)                  1.4220         0.555477   
      6. B(C   6,C   5)                  1.4156         0.568812   
      7. B(C   7,C   6)                  1.3643         0.686785   
      8. B(C   8,C   7)                  1.4088         0.583051   
      9. B(C   9,C   8)                  1.4069         0.587270   
     10. B(C  10,C   9)                  1.2225         1.156047   
     11. B(C  11,C  10)                  1.4069         0.587175   
     12. B(C  12,C  11)                  1.4090         0.582776   
     13. B(C  13,C  12)                  1.3642         0.687014   
     14. B(C  14,C  13)                  1.4154         0.569030   
     15. B(C  15,C  14)                  1.4221         0.555301   
     16. B(C  16,C  15)                  1.3588         0.700626   
     17. B(C  17,C  16)                  1.4212         0.557182   
     18. B(C  17,C   0)                  1.4180         0.563639   
     19. B(C  18,C  17)                  1.4080         0.584894   
     20. B(C  19,C  18)                  1.4251         0.549295   
     21. B(C  19,C  14)                  1.4115         0.577339   
     22. B(C  20,C  19)                  1.4225         0.554445   
     23. B(C  20,C  11)                  1.4300         0.539334   
     24. B(C  21,C  20)                  1.4396         0.520784   
     25. B(C  21,C   8)                  1.4301         0.539219   
     26. B(C  22,C  21)                  1.4224         0.554717   
     27. B(C  22,C   5)                  1.4115         0.577357   
     28. B(C  23,C  22)                  1.4252         0.549058   
     29. B(C  23,C  18)                  1.4206         0.558356   
     30. B(C  23,C   2)                  1.4079         0.585121   
     31. B(H  24,C   0)                  1.0833         0.369028   
     32. B(H  25,C   1)                  1.0833         0.369052   
     33. B(H  26,C   3)                  1.0833         0.369120   
     34. B(H  27,C   4)                  1.0833         0.369103   
     35. B(H  28,C   6)                  1.0832         0.369209   
     36. B(H  29,C   7)                  1.0813         0.371850   
     37. B(H  30,C  12)                  1.0813         0.371852   
     38. B(H  31,C  13)                  1.0832         0.369166   
     39. B(H  32,C  16)                  1.0833         0.369112   
     40. A(C   1,C   0,C  17)          121.0423         0.435316   
     41. A(C  17,C   0,H  24)          118.5621         0.348713   
     42. A(C   1,C   0,H  24)          120.3956         0.361145   
     43. A(C   0,C   1,C   2)          121.0358         0.435271   
     44. A(C   0,C   1,H  25)          120.3964         0.361149   
     45. A(C   2,C   1,H  25)          118.5677         0.348683   
     46. A(C   1,C   2,C   3)          121.7965         0.418584   
     47. A(C   3,C   2,C  23)          119.1437         0.421430   
     48. A(C   1,C   2,C  23)          119.0598         0.422262   
     49. A(C   4,C   3,H  26)          120.4786         0.361861   
     50. A(C   2,C   3,C   4)          120.9656         0.435296   
     51. A(C   2,C   3,H  26)          118.5559         0.348045   
     52. A(C   3,C   4,H  27)          120.4374         0.361858   
     53. A(C   3,C   4,C   5)          121.1880         0.435064   
     54. A(C   5,C   4,H  27)          118.3746         0.347868   
     55. A(C   4,C   5,C  22)          119.1014         0.420204   
     56. A(C   6,C   5,C  22)          119.5764         0.421987   
     57. A(C   4,C   5,C   6)          121.3222         0.419088   
     58. A(C   5,C   6,C   7)          121.2903         0.435328   
     59. A(C   5,C   6,H  28)          118.5239         0.349279   
     60. A(C   7,C   6,H  28)          120.1859         0.360623   
     61. A(C   6,C   7,H  29)          121.0505         0.361061   
     62. A(C   6,C   7,C   8)          120.0451         0.437272   
     63. A(C   8,C   7,H  29)          118.9044         0.351162   
     64. A(C   9,C   8,C  21)          109.4372         0.419255   
     65. A(C   7,C   8,C  21)          120.8547         0.418716   
     66. A(C   7,C   8,C   9)          129.7081         0.425148   
     67. A(C   8,C   9,C  10)          128.3113         0.481477   
     68. A(C   9,C  10,C  11)          128.2803         0.481463   
     69. A(C  12,C  11,C  20)          120.8432         0.418697   
     70. A(C  10,C  11,C  20)          109.4489         0.419258   
     71. A(C  10,C  11,C  12)          129.7080         0.425100   
     72. A(C  11,C  12,H  30)          118.9036         0.351135   
     73. A(C  11,C  12,C  13)          120.0472         0.437261   
     74. A(C  13,C  12,H  30)          121.0492         0.361082   
     75. A(C  12,C  13,H  31)          120.1739         0.360636   
     76. A(C  12,C  13,C  14)          121.2982         0.435385   
     77. A(C  14,C  13,H  31)          118.5279         0.349295   
     78. A(C  13,C  14,C  15)          121.3258         0.419093   
     79. A(C  15,C  14,C  19)          119.0971         0.420178   
     80. A(C  13,C  14,C  19)          119.5771         0.422014   
     81. A(C  14,C  15,C  16)          121.1855         0.435008   
     82. A(C  15,C  16,C  17)          120.9670         0.435273   
     83. A(C  17,C  16,H  32)          118.5565         0.348050   
     84. A(C  15,C  16,H  32)          120.4765         0.361836   
     85. A(C  16,C  17,C  18)          119.1407         0.421408   
     86. A(C   0,C  17,C  18)          119.0633         0.422276   
     87. A(C   0,C  17,C  16)          121.7960         0.418635   
     88. A(C  17,C  18,C  19)          120.0209         0.420337   
     89. A(C  19,C  18,C  23)          120.0845         0.416873   
     90. A(C  17,C  18,C  23)          119.8946         0.421567   
     91. A(C  18,C  19,C  20)          120.2184         0.416352   
     92. A(C  14,C  19,C  20)          120.1928         0.420062   
     93. A(C  14,C  19,C  18)          119.5887         0.419364   
     94. A(C  11,C  20,C  19)          118.0415         0.414999   
     95. A(C  19,C  20,C  21)          119.6955         0.412427   
     96. A(C  11,C  20,C  21)          122.2629         0.410410   
     97. A(C  20,C  21,C  22)          119.7086         0.412463   
     98. A(C   8,C  21,C  22)          118.0320         0.415019   
     99. A(C   8,C  21,C  20)          122.2594         0.410395   
    100. A(C  21,C  22,C  23)          120.2165         0.416357   
    101. A(C   5,C  22,C  23)          119.5821         0.419334   
    102. A(C   5,C  22,C  21)          120.2015         0.420101   
    103. A(C  18,C  23,C  22)          120.0765         0.416841   
    104. A(C   2,C  23,C  22)          120.0193         0.420334   
    105. A(C   2,C  23,C  18)          119.9043         0.421596   
    106. D(C   2,C   1,C   0,H  24)    180.0000         0.033765   
    107. D(C   2,C   1,C   0,C  17)     -0.0000         0.033765   
    108. D(H  25,C   1,C   0,H  24)      0.0000         0.033765   
    109. D(H  25,C   1,C   0,C  17)   -180.0000         0.033765   
    110. D(C   3,C   2,C   1,C   0)   -180.0000         0.021747   
    111. D(C  23,C   2,C   1,H  25)    180.0000         0.021747   
    112. D(C   3,C   2,C   1,H  25)     -0.0000         0.021747   
    113. D(C  23,C   2,C   1,C   0)      0.0000         0.021747   
    114. D(C   4,C   3,C   2,C   1)    179.9999         0.021253   
    115. D(H  26,C   3,C   2,C  23)    180.0000         0.021253   
    116. D(H  26,C   3,C   2,C   1)     -0.0000         0.021253   
    117. D(C   4,C   3,C   2,C  23)     -0.0001         0.021253   
    118. D(C   5,C   4,C   3,H  26)    180.0000         0.034607   
    119. D(C   5,C   4,C   3,C   2)      0.0000         0.034607   
    120. D(H  27,C   4,C   3,C   2)    180.0000         0.034607   
    121. D(H  27,C   4,C   3,H  26)     -0.0000         0.034607   
    122. D(C  22,C   5,C   4,H  27)    180.0000         0.021123   
    123. D(C  22,C   5,C   4,C   3)     -0.0000         0.021123   
    124. D(C   6,C   5,C   4,C   3)    180.0000         0.021123   
    125. D(C   6,C   5,C   4,H  27)      0.0000         0.021123   
    126. D(C   7,C   6,C   5,C  22)     -0.0000         0.022191   
    127. D(H  28,C   6,C   5,C  22)    180.0000         0.022191   
    128. D(H  28,C   6,C   5,C   4)     -0.0001         0.022191   
    129. D(C   7,C   6,C   5,C   4)    180.0000         0.022191   
    130. D(H  29,C   7,C   6,H  28)     -0.0000         0.033116   
    131. D(C   8,C   7,C   6,C   5)      0.0000         0.033116   
    132. D(C   8,C   7,C   6,H  28)   -180.0000         0.033116   
    133. D(H  29,C   7,C   6,C   5)    180.0000         0.033116   
    134. D(C  21,C   8,C   7,C   6)      0.0001         0.023367   
    135. D(C   9,C   8,C   7,C   6)    180.0000         0.023367   
    136. D(C   9,C   8,C   7,H  29)      0.0000         0.023367   
    137. D(C  21,C   8,C   7,H  29)   -179.9999         0.023367   
    138. D(C  10,C   9,C   8,C  21)     -0.0000         0.021530   
    139. D(C  10,C   9,C   8,C   7)   -179.9999         0.021530   
    140. D(C  11,C  10,C   9,C   8)      0.0000         0.084996   
    141. D(C  20,C  11,C  10,C   9)     -0.0001         0.021522   
    142. D(C  12,C  11,C  10,C   9)    180.0000         0.021522   
    143. D(H  30,C  12,C  11,C  20)   -180.0000         0.023344   
    144. D(H  30,C  12,C  11,C  10)     -0.0001         0.023344   
    145. D(C  13,C  12,C  11,C  20)     -0.0000         0.023344   
    146. D(C  13,C  12,C  11,C  10)    179.9999         0.023344   
    147. D(H  31,C  13,C  12,H  30)     -0.0000         0.033139   
    148. D(H  31,C  13,C  12,C  11)   -180.0000         0.033139   
    149. D(C  14,C  13,C  12,H  30)    180.0000         0.033139   
    150. D(C  14,C  13,C  12,C  11)      0.0000         0.033139   
    151. D(C  19,C  14,C  13,H  31)   -180.0000         0.022208   
    152. D(C  19,C  14,C  13,C  12)      0.0000         0.022208   
    153. D(C  15,C  14,C  13,H  31)      0.0001         0.022208   
    154. D(C  15,C  14,C  13,C  12)   -179.9999         0.022208   
    155. D(C  16,C  15,C  14,C  19)      0.0001         0.019173   
    156. D(C  16,C  15,C  14,C  13)    180.0000         0.019173   
    157. D(C  17,C  16,C  15,C  14)     -0.0000         0.031313   
    158. D(H  32,C  16,C  15,C  14)   -179.9999         0.031313   
    159. D(C  18,C  17,C  16,H  32)    179.9999         0.021257   
    160. D(C  18,C  17,C  16,C  15)      0.0000         0.021257   
    161. D(C   0,C  17,C  16,H  32)     -0.0002         0.021257   
    162. D(C   0,C  17,C  16,C  15)    180.0000         0.021257   
    163. D(C  18,C  17,C   0,H  24)   -180.0000         0.021772   
    164. D(C  18,C  17,C   0,C   1)      0.0000         0.021772   
    165. D(C  16,C  17,C   0,H  24)      0.0001         0.021772   
    166. D(C  16,C  17,C   0,C   1)   -180.0000         0.021772   
    167. D(C  19,C  18,C  17,C  16)      0.0000         0.023522   
    168. D(C  19,C  18,C  17,C   0)   -180.0000         0.023522   
    169. D(C  23,C  18,C  17,C  16)    180.0000         0.023522   
    170. D(C  23,C  18,C  17,C   0)      0.0000         0.023522   
    171. D(C  20,C  19,C  18,C  23)      0.0002         0.020639   
    172. D(C  20,C  19,C  18,C  17)   -179.9999         0.020639   
    173. D(C  14,C  19,C  18,C  23)   -180.0000         0.020639   
    174. D(C  14,C  19,C  18,C  17)      0.0000         0.020639   
    175. D(C  20,C  19,C  14,C  15)    179.9998         0.022891   
    176. D(C  20,C  19,C  14,C  13)     -0.0001         0.022891   
    177. D(C  18,C  19,C  14,C  15)     -0.0000         0.022891   
    178. D(C  18,C  19,C  14,C  13)   -180.0000         0.022891   
    179. D(C  21,C  20,C  19,C  18)     -0.0001         0.021042   
    180. D(C  21,C  20,C  19,C  14)   -180.0000         0.021042   
    181. D(C  11,C  20,C  19,C  18)    179.9999         0.021042   
    182. D(C  11,C  20,C  19,C  14)      0.0001         0.021042   
    183. D(C  21,C  20,C  11,C  12)   -179.9999         0.019874   
    184. D(C  21,C  20,C  11,C  10)      0.0001         0.019874   
    185. D(C  19,C  20,C  11,C  12)     -0.0000         0.019874   
    186. D(C  19,C  20,C  11,C  10)   -180.0000         0.019874   
    187. D(C  22,C  21,C  20,C  19)      0.0001         0.018498   
    188. D(C  22,C  21,C  20,C  11)   -180.0000         0.018498   
    189. D(C   8,C  21,C  20,C  19)    180.0000         0.018498   
    190. D(C   8,C  21,C  20,C  11)     -0.0001         0.018498   
    191. D(C  22,C  21,C   8,C   9)    179.9999         0.019865   
    192. D(C  22,C  21,C   8,C   7)     -0.0002         0.019865   
    193. D(C  20,C  21,C   8,C   9)      0.0000         0.019865   
    194. D(C  20,C  21,C   8,C   7)    179.9999         0.019865   
    195. D(C  23,C  22,C  21,C  20)     -0.0001         0.021063   
    196. D(C  23,C  22,C  21,C   8)   -180.0000         0.021063   
    197. D(C   5,C  22,C  21,C  20)   -179.9999         0.021063   
    198. D(C   5,C  22,C  21,C   8)      0.0002         0.021063   
    199. D(C  23,C  22,C   5,C   6)   -179.9999         0.022892   
    200. D(C  23,C  22,C   5,C   4)      0.0001         0.022892   
    201. D(C  21,C  22,C   5,C   6)     -0.0001         0.022892   
    202. D(C  21,C  22,C   5,C   4)    179.9999         0.022892   
    203. D(C  18,C  23,C  22,C  21)      0.0001         0.020621   
    204. D(C  18,C  23,C  22,C   5)    180.0000         0.020621   
    205. D(C   2,C  23,C  22,C   5)     -0.0001         0.020621   
    206. D(C  22,C  23,C  18,C  19)     -0.0002         0.021351   
    207. D(C  22,C  23,C  18,C  17)    179.9999         0.021351   
    208. D(C   2,C  23,C  18,C  19)    179.9999         0.021351   
    209. D(C   2,C  23,C  18,C  17)     -0.0000         0.021351   
    210. D(C  22,C  23,C   2,C   3)      0.0001         0.023541   
    211. D(C   2,C  23,C  22,C  21)   -180.0000         0.020621   
    212. D(C  22,C  23,C   2,C   1)   -179.9999         0.023541   
    213. D(C  18,C  23,C   2,C   3)   -180.0000         0.023541   
    214. D(C  18,C  23,C   2,C   1)      0.0000         0.023541   
    -----------------------------------------------------------------

Number of atoms                         .... 33
Number of degrees of freedom            .... 214

         *************************************************************
         *                GEOMETRY OPTIMIZATION CYCLE   1            *
         *************************************************************
---------------------------------
CARTESIAN COORDINATES (ANGSTROEM)
---------------------------------
  C      2.450259   -2.790902   -0.000010
  C      1.279570   -3.486603   -0.000042
  C      0.030207   -2.815504   -0.000119
  C     -1.201078   -3.525267   -0.000152
  C     -2.388588   -2.865027   -0.000225
  C     -2.441055   -1.443984   -0.000270
  C     -3.676631   -0.753226   -0.000345
  C     -3.726207    0.610123   -0.000387
  C     -2.533123    1.359346   -0.000356
  C     -2.347533    2.753913   -0.000389
  C     -1.296702    3.378618   -0.000363
  C      0.016856    2.874684   -0.000292
  C      1.245521    3.564269   -0.000260
  C      2.419109    2.868839   -0.000187
  C      2.435132    1.453480   -0.000143
  C      3.658215    0.727924   -0.000064
  C      3.670269   -0.630842   -0.000022
  C      2.458196   -1.372883   -0.000053
  C      1.231365   -0.682051   -0.000130
  C      1.215523    0.742919   -0.000175
  C     -0.021576    1.445161   -0.000250
  C     -1.259096    0.709704   -0.000282
  C     -1.233915   -0.712457   -0.000237
  C      0.010127   -1.407788   -0.000162
  H      3.398836   -3.314174    0.000049
  H      1.285717   -4.569901   -0.000008
  H     -1.174516   -4.608207   -0.000119
  H     -3.322077   -3.414655   -0.000250
  H     -4.592537   -1.331531   -0.000370
  H     -4.672191    1.133799   -0.000446
  H      1.237981    4.645500   -0.000293
  H      3.364902    3.396916   -0.000161
  H      4.608710   -1.171956    0.000040

----------------------------
CARTESIAN COORDINATES (A.U.)
----------------------------
  NO LB      ZA    FRAG     MASS         X           Y           Z
   0 C     6.0000    0    12.011    4.630319   -5.274040   -0.000019
   1 C     6.0000    0    12.011    2.418036   -6.588724   -0.000079
   2 C     6.0000    0    12.011    0.057082   -5.320531   -0.000224
   3 C     6.0000    0    12.011   -2.269709   -6.661789   -0.000288
   4 C     6.0000    0    12.011   -4.513777   -5.414117   -0.000425
   5 C     6.0000    0    12.011   -4.612926   -2.728734   -0.000509
   6 C     6.0000    0    12.011   -6.947825   -1.423390   -0.000652
   7 C     6.0000    0    12.011   -7.041510    1.152966   -0.000732
   8 C     6.0000    0    12.011   -4.786908    2.568792   -0.000673
   9 C     6.0000    0    12.011   -4.436195    5.204141   -0.000736
  10 C     6.0000    0    12.011   -2.450411    6.384662   -0.000685
  11 C     6.0000    0    12.011    0.031853    5.432365   -0.000551
  12 C     6.0000    0    12.011    2.353694    6.735491   -0.000490
  13 C     6.0000    0    12.011    4.571453    5.421320   -0.000353
  14 C     6.0000    0    12.011    4.601733    2.746679   -0.000270
  15 C     6.0000    0    12.011    6.913024    1.375577   -0.000121
  16 C     6.0000    0    12.011    6.935803   -1.192118   -0.000041
  17 C     6.0000    0    12.011    4.645318   -2.594373   -0.000100
  18 C     6.0000    0    12.011    2.326943   -1.288890   -0.000245
  19 C     6.0000    0    12.011    2.297006    1.403913   -0.000331
  20 C     6.0000    0    12.011   -0.040772    2.730958   -0.000472
  21 C     6.0000    0    12.011   -2.379346    1.341146   -0.000533
  22 C     6.0000    0    12.011   -2.331761   -1.346349   -0.000448
  23 C     6.0000    0    12.011    0.019137   -2.660334   -0.000307
  24 H     1.0000    0     1.008    6.422869   -6.262881    0.000093
  25 H     1.0000    0     1.008    2.429653   -8.635861   -0.000015
  26 H     1.0000    0     1.008   -2.219513   -8.708249   -0.000224
  27 H     1.0000    0     1.008   -6.277815   -6.452763   -0.000473
  28 H     1.0000    0     1.008   -8.678637   -2.516229   -0.000698
  29 H     1.0000    0     1.008   -8.829161    2.142569   -0.000842
  30 H     1.0000    0     1.008    2.339445    8.778723   -0.000553
  31 H     1.0000    0     1.008    6.358743    6.419242   -0.000305
  32 H     1.0000    0     1.008    8.709200   -2.214676    0.000075

--------------------------------
INTERNAL COORDINATES (ANGSTROEM)
--------------------------------
 C      0   0   0     0.000000000000     0.00000000     0.00000000
 C      1   0   0     1.361805268754     0.00000000     0.00000000
 C      2   1   0     1.418196637354   121.03583292     0.00000000
 C      3   2   1     1.421205945614   121.79647736   180.00002093
 C      4   3   2     1.358711100847   120.96559056   179.99993381
 C      5   4   3     1.422011683191   121.18797557     0.00000000
 C      6   5   4     1.415554177598   121.32221127   179.99999759
 C      7   6   5     1.364250001452   121.29028049   179.99996672
 C      8   7   6     1.408823747755   120.04510016     0.00000000
 C      9   8   7     1.406861184808   129.70806587   179.99996473
 C     10   9   8     1.222499054705   128.31130613   180.00011092
 C     11  10   9     1.406905172764   128.28026653     0.00000000
 C     12  11  10     1.408951961441   129.70798299   179.99998799
 C     13  12  11     1.364159327396   120.04722264   179.99990053
 C     14  13  12     1.415449556716   121.29820085     0.00000000
 C     15  14  13     1.422098014506   121.32584833   180.00012803
 C     16  15  14     1.358818769118   121.18552930   179.99997617
 C      1   2   3     1.418041048065   121.04226979     0.00000000
 C     18   1   2     1.407964419824   119.06327690     0.00000000
 C     15  14  13     1.411503631414   119.57707472     0.00000000
 C     20  15  14     1.422518027192   120.19281654     0.00000000
 C      9   8   7     1.430097976537   120.85473388     0.00000000
 C      6   5   4     1.411495286796   119.10135545     0.00000000
 C      3   2   1     1.407858811541   119.05980831     0.00000000
 H      1   2   3     1.083333400371   120.39558970   179.99996853
 H      2   1   3     1.083315614482   120.39642639   180.00004009
 H      4   3   2     1.083265394100   118.55585572     0.00000000
 H      5   4   3     1.083278347320   120.43741905   179.99999080
 H      7   6   5     1.083199709896   118.52386065     0.00000000
 H      8   7   6     1.081259291811   121.05048770   179.99995603
 H     13  12  11     1.081257926688   118.90362198     0.00000000
 H     14  13  12     1.083231264764   120.17387045   180.00003871
 H     17  16  15     1.083271449046   120.47646391   180.00008716

---------------------------
INTERNAL COORDINATES (A.U.)
---------------------------
 C      0   0   0     0.000000000000     0.00000000     0.00000000
 C      1   0   0     2.573439005676     0.00000000     0.00000000
 C      2   1   0     2.680003248647   121.03583292     0.00000000
 C      3   2   1     2.685690017111   121.79647736   180.00002093
 C      4   3   2     2.567591875719   120.96559056   179.99993381
 C      5   4   3     2.687212640467   121.18797557     0.00000000
 C      6   5   4     2.675009723388   121.32221127   179.99999759
 C      7   6   5     2.578058880945   121.29028049   179.99996672
 C      8   7   6     2.662291054221   120.04510016     0.00000000
 C      9   8   7     2.658582347731   129.70806587   179.99996473
 C     10   9   8     2.310188412369   128.31130613   180.00011092
 C     11  10   9     2.658665472920   128.28026653     0.00000000
 C     12  11  10     2.662533342976   129.70798299   179.99998799
 C     13  12  11     2.577887531813   120.04722264   179.99990053
 C     14  13  12     2.674812018574   121.29820085     0.00000000
 C     15  14  13     2.687375783009   121.32584833   180.00012803
 C     16  15  14     2.567795339265   121.18552930   179.99997617
 C      1   2   3     2.679709227501   121.04226979     0.00000000
 C     18   1   2     2.660667159773   119.06327690     0.00000000
 C     15  14  13     2.667355300408   119.57707472     0.00000000
 C     20  15  14     2.688169491959   120.19281654     0.00000000
 C      9   8   7     2.702493520330   120.85473388     0.00000000
 C      6   5   4     2.667339531365   119.10135545     0.00000000
 C      3   2   1     2.660467589041   119.05980831     0.00000000
 H      1   2   3     2.047203438430   120.39558970   179.99996853
 H      2   1   3     2.047169827971   120.39642639   180.00004009
 H      4   3   2     2.047074925203   118.55585572     0.00000000
 H      5   4   3     2.047099403241   120.43741905   179.99999080
 H      7   6   5     2.046950800046   118.52386065     0.00000000
 H      8   7   6     2.043283941280   121.05048770   179.99995603
 H     13  12  11     2.043281361571   118.90362198     0.00000000
 H     14  13  12     2.047010430105   120.17387045   180.00003871
 H     17  16  15     2.047086367394   120.47646391   180.00008716

---------------------
BASIS SET INFORMATION
---------------------
There are 2 groups of distinct atoms

 Group   1 Type C   : 11s6p2d1f contracted to 5s3p2d1f pattern {62111/411/11/1}
 Group   2 Type H   : 5s1p contracted to 3s1p pattern {311/1}

Atom   0C    basis set group =>   1
Atom   1C    basis set group =>   1
Atom   2C    basis set group =>   1
Atom   3C    basis set group =>   1
Atom   4C    basis set group =>   1
Atom   5C    basis set group =>   1
Atom   6C    basis set group =>   1
Atom   7C    basis set group =>   1
Atom   8C    basis set group =>   1
Atom   9C    basis set group =>   1
Atom  10C    basis set group =>   1
Atom  11C    basis set group =>   1
Atom  12C    basis set group =>   1
Atom  13C    basis set group =>   1
Atom  14C    basis set group =>   1
Atom  15C    basis set group =>   1
Atom  16C    basis set group =>   1
Atom  17C    basis set group =>   1
Atom  18C    basis set group =>   1
Atom  19C    basis set group =>   1
Atom  20C    basis set group =>   1
Atom  21C    basis set group =>   1
Atom  22C    basis set group =>   1
Atom  23C    basis set group =>   1
Atom  24H    basis set group =>   2
Atom  25H    basis set group =>   2
Atom  26H    basis set group =>   2
Atom  27H    basis set group =>   2
Atom  28H    basis set group =>   2
Atom  29H    basis set group =>   2
Atom  30H    basis set group =>   2
Atom  31H    basis set group =>   2
Atom  32H    basis set group =>   2
---------------------------------
AUXILIARY/J BASIS SET INFORMATION
---------------------------------
There are 2 groups of distinct atoms

 Group   1 Type C   : 12s5p4d2f1g contracted to 6s4p3d1f1g pattern {711111/2111/211/2/1}
 Group   2 Type H   : 5s2p1d contracted to 3s1p1d pattern {311/2/1}

Atom   0C    basis set group =>   1
Atom   1C    basis set group =>   1
Atom   2C    basis set group =>   1
Atom   3C    basis set group =>   1
Atom   4C    basis set group =>   1
Atom   5C    basis set group =>   1
Atom   6C    basis set group =>   1
Atom   7C    basis set group =>   1
Atom   8C    basis set group =>   1
Atom   9C    basis set group =>   1
Atom  10C    basis set group =>   1
Atom  11C    basis set group =>   1
Atom  12C    basis set group =>   1
Atom  13C    basis set group =>   1
Atom  14C    basis set group =>   1
Atom  15C    basis set group =>   1
Atom  16C    basis set group =>   1
Atom  17C    basis set group =>   1
Atom  18C    basis set group =>   1
Atom  19C    basis set group =>   1
Atom  20C    basis set group =>   1
Atom  21C    basis set group =>   1
Atom  22C    basis set group =>   1
Atom  23C    basis set group =>   1
Atom  24H    basis set group =>   2
Atom  25H    basis set group =>   2
Atom  26H    basis set group =>   2
Atom  27H    basis set group =>   2
Atom  28H    basis set group =>   2
Atom  29H    basis set group =>   2
Atom  30H    basis set group =>   2
Atom  31H    basis set group =>   2
Atom  32H    basis set group =>   2


           ************************************************************
           *        Program running with 4 parallel MPI-processes     *
           *              working on a common directory               *
           ************************************************************
------------------------------------------------------------------------------
                           ORCA GTO INTEGRAL CALCULATION
                           -- RI-GTO INTEGRALS CHOSEN --
------------------------------------------------------------------------------
------------------------------------------------------------------------------
                   ___                                                        
                  /   \      - P O W E R E D   B Y -                         
                 /     \                                                     
                 |  |  |   _    _      __       _____    __    __             
                 |  |  |  | |  | |    /  \     |  _  \  |  |  /  |          
                  \  \/   | |  | |   /    \    | | | |  |  | /  /          
                 / \  \   | |__| |  /  /\  \   | |_| |  |  |/  /          
                |  |  |   |  __  | /  /__\  \  |    /   |      \           
                |  |  |   | |  | | |   __   |  |    \   |  |\   \          
                \     /   | |  | | |  |  |  |  | |\  \  |  | \   \       
                 \___/    |_|  |_| |__|  |__|  |_| \__\ |__|  \__/        
                                                                              
                      - O R C A' S   B I G   F R I E N D -                    
                                      &                                       
                       - I N T E G R A L  F E E D E R -                       
                                                                              
 v1 FN, 2020, v2 2021                                                         
------------------------------------------------------------------------------


Reading SHARK input file eight_seven_eleven_position.SHARKINP.tmp ... ok
----------------------
SHARK INTEGRAL PACKAGE
----------------------

Number of atoms                             ...     33
Number of basis functions                   ...    798
Number of shells                            ...    300
Maximum angular momentum                    ...      3
Integral batch strategy                     ... SHARK/LIBINT Hybrid
RI-J (if used) integral strategy            ... SPLIT-RIJ (Revised 2003 algorithm where possible)
Printlevel                                  ...      1
Contraction scheme used                     ... SEGMENTED contraction
Coulomb Range Separation                    ... NOT USED
Exchange Range Separation                   ... NOT USED
Finite Nucleus Model                        ... NOT USED
Auxiliary Coulomb fitting basis             ... AVAILABLE
   # of basis functions in Aux-J            ...   1275
   # of shells in Aux-J                     ...    405
   Maximum angular momentum in Aux-J        ...      4
Auxiliary J/K fitting basis                 ... NOT available
Auxiliary Correlation fitting basis         ... NOT available
Auxiliary 'external' fitting basis          ... NOT available
Integral threshold                          ...     2.500000e-11
Primitive cut-off                           ...     2.500000e-12
Primitive pair pre-selection threshold      ...     2.500000e-12

Calculating pre-screening integrals         ... done (  0.1 sec) Dimension = 300
Organizing shell pair data                  ... done (  1.1 sec)
Shell pair information
Total number of shell pairs                 ...     45150
Shell pairs after pre-screening             ...     34939
Total number of primitive shell pairs       ...    143400
Primitive shell pairs kept                  ...     74104
          la=0 lb=0:   7779 shell pairs
          la=1 lb=0:   9580 shell pairs
          la=1 lb=1:   2888 shell pairs
          la=2 lb=0:   5307 shell pairs
          la=2 lb=1:   3261 shell pairs
          la=2 lb=2:    933 shell pairs
          la=3 lb=0:   2490 shell pairs
          la=3 lb=1:   1581 shell pairs
          la=3 lb=2:    886 shell pairs
          la=3 lb=3:    234 shell pairs

Calculating one electron integrals          ... done (  0.1 sec)
Calculating RI/J V-Matrix + Cholesky decomp.... done (  0.1 sec)
Calculating Nuclear repulsion               ... done (  0.0 sec) ENN=   1783.107181818587 Eh

SHARK setup successfully completed in   2.5 seconds

Maximum memory used throughout the entire GTOINT-calculation: 51.6 MB


           ************************************************************
           *        Program running with 4 parallel MPI-processes     *
           *              working on a common directory               *
           ************************************************************
-------------------------------------------------------------------------------
                                 ORCA SCF
-------------------------------------------------------------------------------

------------
SCF SETTINGS
------------
Hamiltonian:
 Density Functional     Method          .... DFT(GTOs)
 Exchange Functional    Exchange        .... M062X
 Correlation Functional Correlation     .... M062X
 Gradients option       PostSCFGGA      .... off
 Hybrid DFT is turned on
   Fraction HF Exchange ScalHFX         ....  0.540000
   Scaling of DF-GGA-X  ScalDFX         ....  0.460000
   Scaling of DF-GGA-C  ScalDFC         ....  1.000000
   Scaling of DF-LDA-C  ScalLDAC        ....  1.000000
   Perturbative correction              ....  0.000000
   Density functional embedding theory  .... OFF
 RI-approximation to the Coulomb term is turned on
   Number of AuxJ basis functions       .... 1275
   RIJ-COSX (HFX calculated with COS-X)).... on


General Settings:
 Integral files         IntName         .... eight_seven_eleven_position
 Hartree-Fock type      HFTyp           .... UHF
 Total Charge           Charge          ....    0
 Multiplicity           Mult            ....    2
 Number of Electrons    NEL             ....  153
 Basis Dimension        Dim             ....  798
 Nuclear Repulsion      ENuc            ....   1783.1071818186 Eh

Convergence Acceleration:
 DIIS                   CNVDIIS         .... on
   Start iteration      DIISMaxIt       ....    12
   Startup error        DIISStart       ....  0.200000
   # of expansion vecs  DIISMaxEq       ....     5
   Bias factor          DIISBfac        ....   1.050
   Max. coefficient     DIISMaxC        ....  10.000
 Trust-Rad. Augm. Hess. CNVTRAH         .... auto
   Auto Start mean grad. ratio tolernc. ....  1.125000
   Auto Start start iteration           ....    20
   Auto Start num. interpolation iter.  ....    10
   Max. Number of Micro iterations      ....    16
   Max. Number of Macro iterations      .... Maxiter - #DIIS iter
   Number of Davidson start vectors     ....     2
   Converg. threshold I  (grad. norm)   ....   1.000e-05
   Converg. threshold II (energy diff.) ....   1.000e-08
   Grad. Scal. Fac. for Micro threshold ....   0.100
   Minimum threshold for Micro iter.    ....   0.010
   NR start threshold (gradient norm)   ....   0.001
   Initial trust radius                 ....   0.400
   Minimum AH scaling param. (alpha)    ....   1.000
   Maximum AH scaling param. (alpha)    .... 1000.000
   Orbital update algorithm             .... Taylor
   White noise on init. David. guess    .... on
   Maximum white noise                  ....   0.010
   Quad. conv. algorithm                .... NR
 SOSCF                  CNVSOSCF        .... off
 Level Shifting         CNVShift        .... on
   Level shift para.    LevelShift      ....    0.2500
   Turn off err/grad.   ShiftErr        ....    0.0010
 Zerner damping         CNVZerner       .... off
 Static damping         CNVDamp         .... on
   Fraction old density DampFac         ....    0.7000
   Max. Damping (<1)    DampMax         ....    0.9800
   Min. Damping (>=0)   DampMin         ....    0.0000
   Turn off err/grad.   DampErr         ....    0.1000
 Fernandez-Rico         CNVRico         .... off

SCF Procedure:
 Maximum # iterations   MaxIter         ....   125
 SCF integral mode      SCFMode         .... Direct
   Integral package                     .... SHARK and LIBINT hybrid scheme
 Reset frequency        DirectResetFreq ....    20
 Integral Threshold     Thresh          ....  2.500e-11 Eh
 Primitive CutOff       TCut            ....  2.500e-12 Eh

Convergence Tolerance:
 Convergence Check Mode ConvCheckMode   .... Total+1el-Energy
 Convergence forced     ConvForced      .... 0
 Energy Change          TolE            ....  1.000e-08 Eh
 1-El. energy change                    ....  1.000e-05 Eh
 DIIS Error             TolErr          ....  5.000e-07


Diagonalization of the overlap matrix:
Smallest eigenvalue                        ... 6.756e-07
Time for diagonalization                   ...    0.300 sec
Threshold for overlap eigenvalues          ... 1.000e-08
Number of eigenvalues below threshold      ... 0
Time for construction of square roots      ...    0.082 sec
Total time needed                          ...    0.385 sec

Time for model grid setup =    0.481 sec

------------------------------
INITIAL GUESS: MODEL POTENTIAL
------------------------------
Loading Hartree-Fock densities                     ... done
Calculating cut-offs                               ... done
Initializing the effective Hamiltonian             ... done
Setting up the integral package (SHARK)            ... done
Starting the Coulomb interaction                   ... done (   1.2 sec)
Reading the grid                                   ... done
Mapping shells                                     ... done
Starting the XC term evaluation                    ... done (   1.0 sec)
  promolecular density results
     # of electrons  =    152.981970364
     EX              =   -125.495837442
     EC              =     -5.186524577
     EX+EC           =   -130.682362019
Transforming the Hamiltonian                       ... done (   0.1 sec)
Diagonalizing the Hamiltonian                      ... done (   0.1 sec)
Back transforming the eigenvectors                 ... done (   0.0 sec)
Now organizing SCF variables                       ... done
                      ------------------
                      INITIAL GUESS DONE (   3.0 sec)
                      ------------------
-------------------
DFT GRID GENERATION
-------------------

General Integration Accuracy     IntAcc      ... 4.388
Radial Grid Type                 RadialGrid  ... OptM3 with GC (2021)
Angular Grid (max. ang.)         AngularGrid ... 4 (Lebedev-302)
Angular grid pruning method      GridPruning ... 4 (adaptive)
Weight generation scheme         WeightScheme... Becke
Basis function cutoff            BFCut       ... 1.0000e-11
Integration weight cutoff        WCut        ... 1.0000e-14
Angular grids for H and He will be reduced by one unit
Partially contracted basis set               ... off
Rotationally invariant grid construction     ... off

Total number of grid points                  ...   171083
Total number of batches                      ...     2689
Average number of points per batch           ...       63
Average number of grid points per atom       ...     5184
Time for grid setup =    1.626 sec

--------------------
COSX GRID GENERATION
--------------------

GRIDX 1
-------
General Integration Accuracy     IntAcc      ... 3.816
Radial Grid Type                 RadialGrid  ... OptM3 with GC (2021)
Angular Grid (max. ang.)         AngularGrid ... 1 (Lebedev-50)
Angular grid pruning method      GridPruning ... 4 (adaptive)
Weight generation scheme         WeightScheme... Becke
Basis function cutoff            BFCut       ... 1.0000e-11
Integration weight cutoff        WCut        ... 1.0000e-14
Angular grids for H and He will be reduced by one unit
Partially contracted basis set               ... on
Rotationally invariant grid construction     ... off

Total number of grid points                  ...    21747
Total number of batches                      ...      354
Average number of points per batch           ...       61
Average number of grid points per atom       ...      659
UseSFitting                                  ... on

GRIDX 2
-------
General Integration Accuracy     IntAcc      ... 4.020
Radial Grid Type                 RadialGrid  ... OptM3 with GC (2021)
Angular Grid (max. ang.)         AngularGrid ... 2 (Lebedev-110)
Angular grid pruning method      GridPruning ... 4 (adaptive)
Weight generation scheme         WeightScheme... Becke
Basis function cutoff            BFCut       ... 1.0000e-11
Integration weight cutoff        WCut        ... 1.0000e-14
Angular grids for H and He will be reduced by one unit
Partially contracted basis set               ... on
Rotationally invariant grid construction     ... off

Total number of grid points                  ...    48352
Total number of batches                      ...      774
Average number of points per batch           ...       62
Average number of grid points per atom       ...     1465
UseSFitting                                  ... on

GRIDX 3
-------
General Integration Accuracy     IntAcc      ... 4.338
Radial Grid Type                 RadialGrid  ... OptM3 with GC (2021)
Angular Grid (max. ang.)         AngularGrid ... 3 (Lebedev-194)
Angular grid pruning method      GridPruning ... 4 (adaptive)
Weight generation scheme         WeightScheme... Becke
Basis function cutoff            BFCut       ... 1.0000e-11
Integration weight cutoff        WCut        ... 1.0000e-14
Angular grids for H and He will be reduced by one unit
Partially contracted basis set               ... on
Rotationally invariant grid construction     ... off

Total number of grid points                  ...   106504
Total number of batches                      ...     1681
Average number of points per batch           ...       63
Average number of grid points per atom       ...     3227
UseSFitting                                  ... on

Time for X-Grid setup             =    3.727 sec

--------------
SCF ITERATIONS
--------------
ITER       Energy         Delta-E        Max-DP      RMS-DP      [F,P]     Damp
               ***  Starting incremental Fock matrix formation  ***
  0   -919.4206828488   0.000000000000 0.07308473  0.00078429  0.0716659 0.7000
  1   -919.5798947272  -0.159211878474 0.06179621  0.00065768  0.0425853 0.7000
                               ***Turning on DIIS***
  2   -919.6672858439  -0.087391116716 0.15199645  0.00159833  0.0216447 0.0000
  3   -919.8117051435  -0.144419299563 0.02043744  0.00028559  0.0182351 0.0000
  4   -919.8307319437  -0.019026800143 0.01279240  0.00013268  0.0057205 0.0000
  5   -919.8314371322  -0.000705188523 0.00869059  0.00006973  0.0031037 0.0000
  6   -919.8316261384  -0.000189006212 0.00749640  0.00005337  0.0019856 0.0000
  7   -919.8317185762  -0.000092437790 0.00332256  0.00002601  0.0010725 0.0000
  8   -919.8317625929  -0.000044016713 0.00261879  0.00001642  0.0006833 0.0000
               *** Restarting incremental Fock matrix formation ***
                                   *** Resetting DIIS ***
  9   -919.8314038299   0.000358762948 0.01200503  0.00014108  0.0003913 0.0000
 10   -919.8314094662  -0.000005636302 0.00031644  0.00000391  0.0003137 0.0000
 11   -919.8314116901  -0.000002223844 0.00080776  0.00000902  0.0002212 0.0000
 12   -919.8314143178  -0.000002627747 0.00029465  0.00000354  0.0001368 0.0000
 13   -919.8314153754  -0.000001057564 0.00024856  0.00000352  0.0000778 0.0000
 14   -919.8314158814  -0.000000505995 0.00006853  0.00000117  0.0000296 0.0000
 15   -919.8314159507  -0.000000069335 0.00010542  0.00000146  0.0000191 0.0000
 16   -919.8314159553  -0.000000004572 0.00010384  0.00000154  0.0000141 0.0000
 17   -919.8314159778  -0.000000022510 0.00008833  0.00000144  0.0000156 0.0000
 18   -919.8314159551   0.000000022698 0.00012242  0.00000201  0.0000124 0.0000
 19   -919.8314159444   0.000000010674 0.00010374  0.00000165  0.0000085 0.0000
                 **** Energy Check signals convergence ****

               *****************************************************
               *                     SUCCESS                       *
               *           SCF CONVERGED AFTER  20 CYCLES          *
               *****************************************************

Old exchange energy                            =    -69.026215799 Eh
New exchange energy                            =    -69.026050126 Eh
Exchange energy change after final integration =      0.000165673 Eh
Total energy after final integration           =   -919.831250275 Eh
Final COS-X integration done in                =   111.832 sec

----------------
TOTAL SCF ENERGY
----------------

Total Energy       :         -919.83125027 Eh          -25029.88081 eV

Components:
Nuclear Repulsion  :         1783.10718182 Eh           48520.81317 eV
Electronic Energy  :        -2702.93843209 Eh          -73550.69398 eV
One Electron Energy:        -4783.66453860 Eh         -130170.12982 eV
Two Electron Energy:         2080.72610651 Eh           56619.43583 eV
Max COSX asymmetry :            0.00000102 Eh               0.00003 eV

Virial components:
Potential Energy   :        -1835.14481877 Eh          -49936.82926 eV
Kinetic Energy     :          915.31356850 Eh           24906.94844 eV
Virial Ratio       :            2.00493567


DFT components:
N(Alpha)           :       77.000131446151 electrons
N(Beta)            :       76.000133988826 electrons
N(Total)           :      153.000265434978 electrons
E(XC)              :      -64.444480642662 Eh       
DFET-embed. en.    :        0.000000000000 Eh       

---------------
SCF CONVERGENCE
---------------

  Last Energy change         ...   -3.3712e-09  Tolerance :   1.0000e-08
  Last MAX-Density change    ...    0.0000e+00  Tolerance :   1.0000e-07
  Last RMS-Density change    ...    0.0000e+00  Tolerance :   5.0000e-09
  Last DIIS Error            ...    5.5515e-06  Tolerance :   5.0000e-07

             **** THE GBW FILE WAS UPDATED (eight_seven_eleven_position.gbw) ****
             **** DENSITY eight_seven_eleven_position.scfp WAS UPDATED ****
             **** ENERGY FILE WAS UPDATED (eight_seven_eleven_position.en.tmp) ****
----------------------
UHF SPIN CONTAMINATION
----------------------

Warning: in a DFT calculation there is little theoretical justification to 
         calculate <S**2> as in Hartree-Fock theory. We will do it anyways
         but you should keep in mind that the values have only limited relevance

Expectation value of <S**2>     :     0.765469
Ideal value S*(S+1) for S=0.5   :     0.750000
Deviation                       :     0.015469

             **** THE GBW FILE WAS UPDATED (eight_seven_eleven_position.gbw) ****
             **** DENSITY eight_seven_eleven_position.scfp WAS UPDATED ****
----------------
ORBITAL ENERGIES
----------------
                 SPIN UP ORBITALS
  NO   OCC          E(Eh)            E(eV) 
   0   1.0000     -10.586671      -288.0780 
   1   1.0000     -10.586054      -288.0612 
   2   1.0000     -10.584564      -288.0206 
   3   1.0000     -10.573524      -287.7202 
   4   1.0000     -10.572520      -287.6929 
   5   1.0000     -10.571239      -287.6580 
   6   1.0000     -10.570083      -287.6266 
   7   1.0000     -10.567912      -287.5675 
   8   1.0000     -10.566730      -287.5353 
   9   1.0000     -10.564498      -287.4746 
  10   1.0000     -10.563863      -287.4573 
  11   1.0000     -10.563518      -287.4479 
  12   1.0000     -10.562483      -287.4198 
  13   1.0000     -10.558137      -287.3015 
  14   1.0000     -10.557112      -287.2736 
  15   1.0000     -10.556691      -287.2622 
  16   1.0000     -10.555624      -287.2331 
  17   1.0000     -10.555531      -287.2306 
  18   1.0000     -10.555441      -287.2281 
  19   1.0000     -10.554475      -287.2019 
  20   1.0000     -10.554167      -287.1935 
  21   1.0000     -10.553195      -287.1670 
  22   1.0000     -10.551275      -287.1148 
  23   1.0000     -10.548794      -287.0473 
  24   1.0000      -1.030214       -28.0336 
  25   1.0000      -0.992302       -27.0019 
  26   1.0000      -0.990896       -26.9637 
  27   1.0000      -0.940787       -25.6001 
  28   1.0000      -0.939972       -25.5779 
  29   1.0000      -0.918559       -24.9953 
  30   1.0000      -0.889334       -24.2000 
  31   1.0000      -0.870350       -23.6834 
  32   1.0000      -0.853336       -23.2205 
  33   1.0000      -0.845334       -23.0027 
  34   1.0000      -0.818105       -22.2618 
  35   1.0000      -0.816448       -22.2167 
  36   1.0000      -0.733812       -19.9680 
  37   1.0000      -0.733011       -19.9463 
  38   1.0000      -0.723330       -19.6828 
  39   1.0000      -0.719629       -19.5821 
  40   1.0000      -0.716121       -19.4866 
  41   1.0000      -0.654951       -17.8221 
  42   1.0000      -0.629418       -17.1273 
  43   1.0000      -0.625967       -17.0334 
  44   1.0000      -0.615812       -16.7571 
  45   1.0000      -0.610981       -16.6256 
  46   1.0000      -0.598393       -16.2831 
  47   1.0000      -0.556428       -15.1412 
  48   1.0000      -0.553671       -15.0662 
  49   1.0000      -0.541890       -14.7456 
  50   1.0000      -0.534888       -14.5550 
  51   1.0000      -0.521992       -14.2041 
  52   1.0000      -0.519287       -14.1305 
  53   1.0000      -0.512779       -13.9534 
  54   1.0000      -0.501429       -13.6446 
  55   1.0000      -0.488923       -13.3043 
  56   1.0000      -0.485202       -13.2030 
  57   1.0000      -0.483561       -13.1584 
  58   1.0000      -0.474532       -12.9127 
  59   1.0000      -0.472402       -12.8547 
  60   1.0000      -0.461999       -12.5716 
  61   1.0000      -0.449598       -12.2342 
  62   1.0000      -0.444941       -12.1075 
  63   1.0000      -0.431107       -11.7310 
  64   1.0000      -0.413913       -11.2631 
  65   1.0000      -0.410771       -11.1776 
  66   1.0000      -0.403874       -10.9900 
  67   1.0000      -0.392145       -10.6708 
  68   1.0000      -0.391670       -10.6579 
  69   1.0000      -0.345424        -9.3995 
  70   1.0000      -0.334744        -9.1089 
  71   1.0000      -0.331000        -9.0070 
  72   1.0000      -0.326560        -8.8862 
  73   1.0000      -0.319264        -8.6876 
  74   1.0000      -0.316039        -8.5999 
  75   1.0000      -0.262112        -7.1324 
  76   1.0000      -0.261548        -7.1171 
  77   0.0000      -0.049013        -1.3337 
  78   0.0000      -0.040191        -1.0937 
  79   0.0000      -0.038176        -1.0388 
  80   0.0000      -0.002932        -0.0798 
  81   0.0000       0.003521         0.0958 
  82   0.0000       0.015995         0.4352 
  83   0.0000       0.051701         1.4068 
  84   0.0000       0.078028         2.1233 
  85   0.0000       0.085920         2.3380 
  86   0.0000       0.087524         2.3817 
  87   0.0000       0.095753         2.6056 
  88   0.0000       0.100020         2.7217 
  89   0.0000       0.110879         3.0172 
  90   0.0000       0.113797         3.0966 
  91   0.0000       0.120778         3.2865 
  92   0.0000       0.125872         3.4252 
  93   0.0000       0.127254         3.4627 
  94   0.0000       0.133522         3.6333 
  95   0.0000       0.135929         3.6988 
  96   0.0000       0.139437         3.7943 
  97   0.0000       0.144785         3.9398 
  98   0.0000       0.166347         4.5265 
  99   0.0000       0.176238         4.7957 
 100   0.0000       0.177843         4.8394 
 101   0.0000       0.183577         4.9954 
 102   0.0000       0.190598         5.1864 
 103   0.0000       0.196957         5.3595 
 104   0.0000       0.199207         5.4207 
 105   0.0000       0.208112         5.6630 
 106   0.0000       0.209842         5.7101 
 107   0.0000       0.212084         5.7711 
 108   0.0000       0.223732         6.0881 
 109   0.0000       0.231566         6.3012 
 110   0.0000       0.232204         6.3186 
 111   0.0000       0.232839         6.3359 
 112   0.0000       0.241680         6.5764 
 113   0.0000       0.245134         6.6704 
 114   0.0000       0.256251         6.9729 
 115   0.0000       0.262337         7.1386 
 116   0.0000       0.265220         7.2170 
 117   0.0000       0.268879         7.3166 
 118   0.0000       0.268901         7.3172 
 119   0.0000       0.278076         7.5668 
 120   0.0000       0.280557         7.6343 
 121   0.0000       0.282043         7.6748 
 122   0.0000       0.285039         7.7563 
 123   0.0000       0.285850         7.7784 
 124   0.0000       0.290783         7.9126 
 125   0.0000       0.302113         8.2209 
 126   0.0000       0.302295         8.2259 
 127   0.0000       0.304731         8.2922 
 128   0.0000       0.310320         8.4442 
 129   0.0000       0.317360         8.6358 
 130   0.0000       0.317713         8.6454 
 131   0.0000       0.320356         8.7173 
 132   0.0000       0.320406         8.7187 
 133   0.0000       0.324319         8.8252 
 134   0.0000       0.328169         8.9299 
 135   0.0000       0.339594         9.2408 
 136   0.0000       0.344967         9.3870 
 137   0.0000       0.347697         9.4613 
 138   0.0000       0.355609         9.6766 
 139   0.0000       0.357204         9.7200 
 140   0.0000       0.359578         9.7846 
 141   0.0000       0.362265         9.8577 
 142   0.0000       0.366733         9.9793 
 143   0.0000       0.372212        10.1284 
 144   0.0000       0.378617        10.3027 
 145   0.0000       0.381841        10.3904 
 146   0.0000       0.382388        10.4053 
 147   0.0000       0.383399        10.4328 
 148   0.0000       0.388786        10.5794 
 149   0.0000       0.389492        10.5986 
 150   0.0000       0.391851        10.6628 
 151   0.0000       0.396913        10.8005 
 152   0.0000       0.410337        11.1658 
 153   0.0000       0.412189        11.2162 
 154   0.0000       0.417083        11.3494 
 155   0.0000       0.419999        11.4287 
 156   0.0000       0.421930        11.4813 
 157   0.0000       0.427477        11.6322 
 158   0.0000       0.428476        11.6594 
 159   0.0000       0.433051        11.7839 
 160   0.0000       0.449238        12.2244 
 161   0.0000       0.452716        12.3190 
 162   0.0000       0.459157        12.4943 
 163   0.0000       0.461818        12.5667 
 164   0.0000       0.464364        12.6360 
 165   0.0000       0.466644        12.6980 
 166   0.0000       0.470950        12.8152 
 167   0.0000       0.473565        12.8864 
 168   0.0000       0.474961        12.9244 
 169   0.0000       0.491882        13.3848 
 170   0.0000       0.494879        13.4663 
 171   0.0000       0.504488        13.7278 
 172   0.0000       0.509750        13.8710 
 173   0.0000       0.513997        13.9866 
 174   0.0000       0.514046        13.9879 
 175   0.0000       0.516860        14.0645 
 176   0.0000       0.523060        14.2332 
 177   0.0000       0.531527        14.4636 
 178   0.0000       0.539856        14.6902 
 179   0.0000       0.542655        14.7664 
 180   0.0000       0.547706        14.9038 
 181   0.0000       0.551825        15.0159 
 182   0.0000       0.554080        15.0773 
 183   0.0000       0.554869        15.0988 
 184   0.0000       0.556075        15.1316 
 185   0.0000       0.564064        15.3490 
 186   0.0000       0.575655        15.6644 
 187   0.0000       0.580080        15.7848 
 188   0.0000       0.590038        16.0558 
 189   0.0000       0.594920        16.1886 
 190   0.0000       0.605679        16.4814 
 191   0.0000       0.620738        16.8911 
 192   0.0000       0.632004        17.1977 
 193   0.0000       0.633676        17.2432 
 194   0.0000       0.634142        17.2559 
 195   0.0000       0.636037        17.3074 
 196   0.0000       0.639897        17.4125 
 197   0.0000       0.643774        17.5180 
 198   0.0000       0.647977        17.6324 
 199   0.0000       0.657992        17.9049 
 200   0.0000       0.658471        17.9179 
 201   0.0000       0.658486        17.9183 
 202   0.0000       0.662912        18.0387 
 203   0.0000       0.671026        18.2595 
 204   0.0000       0.673716        18.3327 
 205   0.0000       0.681704        18.5501 
 206   0.0000       0.685479        18.6528 
 207   0.0000       0.692804        18.8522 
 208   0.0000       0.697210        18.9721 
 209   0.0000       0.697746        18.9866 
 210   0.0000       0.716567        19.4988 
 211   0.0000       0.718196        19.5431 
 212   0.0000       0.725831        19.7509 
 213   0.0000       0.726590        19.7715 
 214   0.0000       0.730769        19.8852 
 215   0.0000       0.744212        20.2510 
 216   0.0000       0.749626        20.3984 
 217   0.0000       0.756062        20.5735 
 218   0.0000       0.762567        20.7505 
 219   0.0000       0.767131        20.8747 
 220   0.0000       0.769468        20.9383 
 221   0.0000       0.770207        20.9584 
 222   0.0000       0.779130        21.2012 
 223   0.0000       0.780991        21.2519 
 224   0.0000       0.783998        21.3337 
 225   0.0000       0.788322        21.4513 
 226   0.0000       0.794140        21.6097 
 227   0.0000       0.796581        21.6761 
 228   0.0000       0.800211        21.7749 
 229   0.0000       0.802346        21.8330 
 230   0.0000       0.811886        22.0926 
 231   0.0000       0.817717        22.2512 
 232   0.0000       0.820645        22.3309 
 233   0.0000       0.828534        22.5456 
 234   0.0000       0.833714        22.6865 
 235   0.0000       0.839394        22.8411 
 236   0.0000       0.846338        23.0300 
 237   0.0000       0.857148        23.3242 
 238   0.0000       0.861419        23.4404 
 239   0.0000       0.862946        23.4819 
 240   0.0000       0.866052        23.5665 
 241   0.0000       0.867368        23.6023 
 242   0.0000       0.876472        23.8500 
 243   0.0000       0.889245        24.1976 
 244   0.0000       0.889947        24.2167 
 245   0.0000       0.894652        24.3447 
 246   0.0000       0.901623        24.5344 
 247   0.0000       0.905101        24.6291 
 248   0.0000       0.908423        24.7194 
 249   0.0000       0.916117        24.9288 
 250   0.0000       0.916537        24.9402 
 251   0.0000       0.921857        25.0850 
 252   0.0000       0.926582        25.2136 
 253   0.0000       0.935349        25.4522 
 254   0.0000       0.953429        25.9441 
 255   0.0000       0.956554        26.0291 
 256   0.0000       0.956917        26.0390 
 257   0.0000       0.965371        26.2691 
 258   0.0000       0.988107        26.8877 
 259   0.0000       0.993279        27.0285 
 260   0.0000       0.997614        27.1464 
 261   0.0000       1.014037        27.5933 
 262   0.0000       1.015125        27.6230 
 263   0.0000       1.023451        27.8495 
 264   0.0000       1.029923        28.0256 
 265   0.0000       1.042151        28.3584 
 266   0.0000       1.052866        28.6499 
 267   0.0000       1.064464        28.9656 
 268   0.0000       1.065027        28.9809 
 269   0.0000       1.075252        29.2591 
 270   0.0000       1.080950        29.4142 
 271   0.0000       1.087968        29.6051 
 272   0.0000       1.090495        29.6739 
 273   0.0000       1.094776        29.7904 
 274   0.0000       1.101589        29.9758 
 275   0.0000       1.110020        30.2052 
 276   0.0000       1.118982        30.4490 
 277   0.0000       1.122712        30.5505 
 278   0.0000       1.144582        31.1457 
 279   0.0000       1.161329        31.6014 
 280   0.0000       1.177739        32.0479 
 281   0.0000       1.199183        32.6314 
 282   0.0000       1.204156        32.7668 
 283   0.0000       1.212195        32.9855 
 284   0.0000       1.213143        33.0113 
 285   0.0000       1.217229        33.1225 
 286   0.0000       1.228670        33.4338 
 287   0.0000       1.231136        33.5009 
 288   0.0000       1.231554        33.5123 
 289   0.0000       1.243386        33.8342 
 290   0.0000       1.245797        33.8999 
 291   0.0000       1.249546        34.0019 
 292   0.0000       1.253163        34.1003 
 293   0.0000       1.253592        34.1120 
 294   0.0000       1.276846        34.7447 
 295   0.0000       1.280557        34.8457 
 296   0.0000       1.288431        35.0600 
 297   0.0000       1.290252        35.1095 
 298   0.0000       1.296066        35.2677 
 299   0.0000       1.297512        35.3071 
 300   0.0000       1.306012        35.5384 
 301   0.0000       1.308795        35.6141 
 302   0.0000       1.314040        35.7569 
 303   0.0000       1.320337        35.9282 
 304   0.0000       1.324482        36.0410 
 305   0.0000       1.341901        36.5150 
 306   0.0000       1.355057        36.8730 
 307   0.0000       1.359310        36.9887 
 308   0.0000       1.368113        37.2282 
 309   0.0000       1.370578        37.2953 
 310   0.0000       1.373119        37.3645 
 311   0.0000       1.375913        37.4405 
 312   0.0000       1.386769        37.7359 
 313   0.0000       1.391973        37.8775 
 314   0.0000       1.406057        38.2608 
 315   0.0000       1.417314        38.5671 
 316   0.0000       1.418565        38.6011 
 317   0.0000       1.420544        38.6550 
 318   0.0000       1.429557        38.9002 
 319   0.0000       1.431244        38.9461 
 320   0.0000       1.433060        38.9956 
 321   0.0000       1.434332        39.0302 
 322   0.0000       1.453545        39.5530 
 323   0.0000       1.474603        40.1260 
 324   0.0000       1.488372        40.5007 
 325   0.0000       1.488863        40.5140 
 326   0.0000       1.495589        40.6970 
 327   0.0000       1.496040        40.7093 
 328   0.0000       1.511652        41.1341 
 329   0.0000       1.514414        41.2093 
 330   0.0000       1.522583        41.4316 
 331   0.0000       1.536468        41.8094 
 332   0.0000       1.539916        41.9032 
 333   0.0000       1.542168        41.9645 
 334   0.0000       1.545335        42.0507 
 335   0.0000       1.545995        42.0687 
 336   0.0000       1.566615        42.6298 
 337   0.0000       1.569828        42.7172 
 338   0.0000       1.571362        42.7589 
 339   0.0000       1.578191        42.9448 
 340   0.0000       1.586907        43.1819 
 341   0.0000       1.591855        43.3166 
 342   0.0000       1.593313        43.3563 
 343   0.0000       1.606218        43.7074 
 344   0.0000       1.613318        43.9006 
 345   0.0000       1.622659        44.1548 
 346   0.0000       1.627102        44.2757 
 347   0.0000       1.641829        44.6764 
 348   0.0000       1.645884        44.7868 
 349   0.0000       1.647567        44.8326 
 350   0.0000       1.650568        44.9143 
 351   0.0000       1.661233        45.2044 
 352   0.0000       1.662575        45.2410 
 353   0.0000       1.668376        45.3988 
 354   0.0000       1.671047        45.4715 
 355   0.0000       1.680481        45.7282 
 356   0.0000       1.697572        46.1933 
 357   0.0000       1.714414        46.6516 
 358   0.0000       1.715906        46.6922 
 359   0.0000       1.720133        46.8072 
 360   0.0000       1.725088        46.9420 
 361   0.0000       1.726267        46.9741 
 362   0.0000       1.729790        47.0700 
 363   0.0000       1.741789        47.3965 
 364   0.0000       1.744253        47.4635 
 365   0.0000       1.750153        47.6241 
 366   0.0000       1.756949        47.8090 
 367   0.0000       1.763392        47.9843 
 368   0.0000       1.764750        48.0213 
 369   0.0000       1.770824        48.1866 
 370   0.0000       1.784629        48.5622 
 371   0.0000       1.788936        48.6794 
 372   0.0000       1.799764        48.9741 
 373   0.0000       1.818469        49.4831 
 374   0.0000       1.827052        49.7166 
 375   0.0000       1.834326        49.9146 
 376   0.0000       1.841591        50.1122 
 377   0.0000       1.871726        50.9323 
 378   0.0000       1.885300        51.3016 
 379   0.0000       1.890138        51.4333 
 380   0.0000       1.906895        51.8893 
 381   0.0000       1.912203        52.0337 
 382   0.0000       1.917978        52.1908 
 383   0.0000       1.924253        52.3616 
 384   0.0000       1.932510        52.5863 
 385   0.0000       1.952129        53.1201 
 386   0.0000       1.960842        53.3572 
 387   0.0000       1.963853        53.4392 
 388   0.0000       1.980615        53.8953 
 389   0.0000       1.987369        54.0791 
 390   0.0000       1.997456        54.3535 
 391   0.0000       2.000360        54.4326 
 392   0.0000       2.007066        54.6150 
 393   0.0000       2.008771        54.6614 
 394   0.0000       2.034487        55.3612 
 395   0.0000       2.038476        55.4697 
 396   0.0000       2.041325        55.5473 
 397   0.0000       2.042558        55.5808 
 398   0.0000       2.080993        56.6267 
 399   0.0000       2.084715        56.7280 
 400   0.0000       2.103217        57.2314 
 401   0.0000       2.118848        57.6568 
 402   0.0000       2.123838        57.7926 
 403   0.0000       2.136006        58.1237 
 404   0.0000       2.148904        58.4746 
 405   0.0000       2.161565        58.8192 
 406   0.0000       2.166172        58.9445 
 407   0.0000       2.174839        59.1804 
[...]
-----------------------------------------------------------------------
Final Gibbs free energy         ...   -923.37138806 Eh

For completeness - the Gibbs free energy minus the electronic energy
G-E(el)                           ...     -3.53782230 Eh  -2220.01 kcal/mol


The first frequency considered to be a vibration is 6
The total number of vibrations considered is 93


--------------------------
THERMOCHEMISTRY AT 8000.00K
--------------------------

Temperature         ... 8000.00 K
Pressure            ... 1.00 atm
Total Mass          ... 297.34 AMU

Throughout the following assumptions are being made:
  (1) The electronic state is orbitally nondegenerate
      but the spin degeneracy is treated
  (2) There are no thermally accessible electronically excited states
  (3) Hindered rotations indicated by low frequency modes are not
      treated as such but are treated as vibrations and this may
      cause some error
  (4) All equations used are the standard statistical mechanics
      equations for an ideal gas
  (5) All vibrations are strictly harmonic

freq.      86.92  E(vib)   ...      15.77 
freq.      89.45  E(vib)   ...      15.77 
freq.     128.28  E(vib)   ...      15.72 
freq.     169.73  E(vib)   ...      15.66 
freq.     228.09  E(vib)   ...      15.57 
freq.     297.13  E(vib)   ...      15.48 
freq.     299.72  E(vib)   ...      15.47 
freq.     316.06  E(vib)   ...      15.45 
freq.     326.41  E(vib)   ...      15.44 
freq.     359.21  E(vib)   ...      15.39 
freq.     368.92  E(vib)   ...      15.38 
freq.     388.68  E(vib)   ...      15.35 
freq.     395.70  E(vib)   ...      15.34 
freq.     447.66  E(vib)   ...      15.27 
freq.     452.36  E(vib)   ...      15.26 
freq.     465.12  E(vib)   ...      15.24 
freq.     476.05  E(vib)   ...      15.23 
freq.     497.94  E(vib)   ...      15.20 
freq.     501.52  E(vib)   ...      15.19 
freq.     507.88  E(vib)   ...      15.18 
freq.     513.55  E(vib)   ...      15.18 
freq.     543.27  E(vib)   ...      15.13 
freq.     567.52  E(vib)   ...      15.10 
freq.     584.03  E(vib)   ...      15.08 
freq.     586.01  E(vib)   ...      15.07 
freq.     639.72  E(vib)   ...      15.00 
freq.     653.01  E(vib)   ...      14.98 
freq.     683.60  E(vib)   ...      14.94 
freq.     684.32  E(vib)   ...      14.94 
freq.     688.79  E(vib)   ...      14.93 
freq.     697.29  E(vib)   ...      14.92 
freq.     746.92  E(vib)   ...      14.85 
freq.     769.02  E(vib)   ...      14.82 
freq.     794.99  E(vib)   ...      14.79 
freq.     809.90  E(vib)   ...      14.77 
freq.     836.14  E(vib)   ...      14.73 
freq.     837.72  E(vib)   ...      14.73 
freq.     839.21  E(vib)   ...      14.73 
freq.     849.39  E(vib)   ...      14.71 
freq.     859.83  E(vib)   ...      14.70 
freq.     877.25  E(vib)   ...      14.68 
freq.     894.07  E(vib)   ...      14.65 
freq.     913.30  E(vib)   ...      14.63 
freq.     952.21  E(vib)   ...      14.58 
freq.     982.69  E(vib)   ...      14.53 
freq.     992.22  E(vib)   ...      14.52 
freq.     997.54  E(vib)   ...      14.51 
freq.    1000.14  E(vib)   ...      14.51 
freq.    1002.83  E(vib)   ...      14.51 
freq.    1014.98  E(vib)   ...      14.49 
freq.    1052.10  E(vib)   ...      14.44 
freq.    1143.46  E(vib)   ...      14.32 
freq.    1154.66  E(vib)   ...      14.30 
freq.    1167.32  E(vib)   ...      14.29 
freq.    1172.38  E(vib)   ...      14.28 
freq.    1191.88  E(vib)   ...      14.25 
freq.    1217.35  E(vib)   ...      14.22 
freq.    1232.24  E(vib)   ...      14.20 
freq.    1247.91  E(vib)   ...      14.18 
freq.    1252.69  E(vib)   ...      14.17 
freq.    1255.08  E(vib)   ...      14.17 
freq.    1293.25  E(vib)   ...      14.12 
freq.    1304.86  E(vib)   ...      14.11 
freq.    1346.88  E(vib)   ...      14.05 
freq.    1372.27  E(vib)   ...      14.02 
freq.    1383.98  E(vib)   ...      14.00 
freq.    1405.79  E(vib)   ...      13.97 
freq.    1410.26  E(vib)   ...      13.97 
freq.    1429.71  E(vib)   ...      13.94 
freq.    1440.46  E(vib)   ...      13.93 
freq.    1451.91  E(vib)   ...      13.91 
freq.    1471.10  E(vib)   ...      13.89 
freq.    1479.98  E(vib)   ...      13.88 
freq.    1503.09  E(vib)   ...      13.85 
freq.    1550.40  E(vib)   ...      13.78 
freq.    1555.93  E(vib)   ...      13.78 
freq.    1574.91  E(vib)   ...      13.75 
freq.    1593.33  E(vib)   ...      13.73 
freq.    1608.84  E(vib)   ...      13.71 
freq.    1663.73  E(vib)   ...      13.64 
freq.    1677.98  E(vib)   ...      13.62 
freq.    1688.98  E(vib)   ...      13.61 
freq.    1694.09  E(vib)   ...      13.60 
freq.    2126.37  E(vib)   ...      13.05 
freq.    3204.04  E(vib)   ...      11.76 
freq.    3204.94  E(vib)   ...      11.75 
freq.    3205.35  E(vib)   ...      11.75 
freq.    3211.65  E(vib)   ...      11.75 
freq.    3220.60  E(vib)   ...      11.74 
freq.    3221.50  E(vib)   ...      11.73 
freq.    3222.59  E(vib)   ...      11.73 
freq.    3238.57  E(vib)   ...      11.72 
freq.    3240.19  E(vib)   ...      11.71 

------------
INNER ENERGY
------------

The inner energy is: U= E(el) + E(ZPE) + E(vib) + E(rot) + E(trans)
    E(el)   - is the total energy from the electronic structure calculation
              = E(kin-el) + E(nuc-el) + E(el-el) + E(nuc-nuc)
    E(ZPE)  - the the zero temperature vibrational energy from the frequency calculation
    E(vib)  - the the finite temperature correction to E(ZPE) due to population
              of excited vibrational states
    E(rot)  - is the rotational thermal energy
    E(trans)- is the translational thermal energy

Summary of contributions to the inner energy U:
Electronic energy                ...   -919.83356576 Eh
Zero point energy                ...      0.24535607 Eh     153.96 kcal/mol
Thermal vibrational correction   ...      2.12341531 Eh    1332.46 kcal/mol
Thermal rotational correction    ...      0.03800158 Eh      23.85 kcal/mol
Thermal translational correction ...      0.03800158 Eh      23.85 kcal/mol
-----------------------------------------------------------------------
Total thermal energy                   -917.38879122 Eh


Summary of corrections to the electronic energy:
(perhaps to be used in another calculation)
Total thermal correction                  2.19941847 Eh    1380.15 kcal/mol
Non-thermal (ZPE) correction              0.24535607 Eh     153.96 kcal/mol
-----------------------------------------------------------------------
Total correction                          2.44477454 Eh    1534.12 kcal/mol


--------
ENTHALPY
--------

The enthalpy is H = U + kB*T
                kB is Boltzmann's constant
Total free energy                 ...   -917.38879122 Eh 
Thermal Enthalpy correction       ...      0.02533514 Eh      15.90 kcal/mol
-----------------------------------------------------------------------
Total Enthalpy                    ...   -917.36345608 Eh


Note: Rotational entropy computed according to Herzberg 
Infrared and Raman Spectra, Chapter V,1, Van Nostrand Reinhold, 1945 
Point Group:  Cs, Symmetry Number:   1  
Rotational constants in cm-1:     0.011733     0.011303     0.005757 

Vibrational entropy computed according to the QRRHO of S. Grimme
Chem.Eur.J. 2012 18 9955


-------
ENTROPY
-------

The entropy contributions are T*S = T*(S(el)+S(vib)+S(rot)+S(trans))
     S(el)   - electronic entropy
     S(vib)  - vibrational entropy
     S(rot)  - rotational entropy
     S(trans)- translational entropy
The entropies will be listed as multiplied by the temperature to get
units of energy

Electronic entropy                ...      0.01756046 Eh     11.02 kcal/mol
Vibrational entropy               ...      6.56038563 Eh   4116.70 kcal/mol
Rotational entropy                ...      0.55862840 Eh    350.54 kcal/mol
Translational entropy             ...      0.75611570 Eh    474.47 kcal/mol
-----------------------------------------------------------------------
Final entropy term                ...      7.89269020 Eh   4952.73 kcal/mol

In case the symmetry of your molecule has not been determined correctly
or in case you have a reason to use a different symmetry number we print 
out the resulting rotational entropy values for sn=1,12 :
 --------------------------------------------------------
|  sn= 1 | S(rot)=       0.55862840 Eh    350.54 kcal/mol|
|  sn= 2 | S(rot)=       0.54106794 Eh    339.52 kcal/mol|
|  sn= 3 | S(rot)=       0.53079573 Eh    333.08 kcal/mol|
|  sn= 4 | S(rot)=       0.52350748 Eh    328.51 kcal/mol|
|  sn= 5 | S(rot)=       0.51785428 Eh    324.96 kcal/mol|
|  sn= 6 | S(rot)=       0.51323527 Eh    322.06 kcal/mol|
|  sn= 7 | S(rot)=       0.50932996 Eh    319.61 kcal/mol|
|  sn= 8 | S(rot)=       0.50594703 Eh    317.49 kcal/mol|
|  sn= 9 | S(rot)=       0.50296306 Eh    315.61 kcal/mol|
|  sn=10 | S(rot)=       0.50029382 Eh    313.94 kcal/mol|
|  sn=11 | S(rot)=       0.49787919 Eh    312.42 kcal/mol|
|  sn=12 | S(rot)=       0.49567482 Eh    311.04 kcal/mol|
 --------------------------------------------------------


-------------------
GIBBS FREE ENERGY
-------------------

The Gibbs free energy is G = H - T*S

Total enthalpy                    ...   -917.36345608 Eh 
Total entropy correction          ...     -7.89269020 Eh  -4952.73 kcal/mol
-----------------------------------------------------------------------
Final Gibbs free energy         ...   -925.25614627 Eh

For completeness - the Gibbs free energy minus the electronic energy
G-E(el)                           ...     -5.42258052 Eh  -3402.71 kcal/mol


The first frequency considered to be a vibration is 6
The total number of vibrations considered is 93


--------------------------
THERMOCHEMISTRY AT 10000.00K
--------------------------

Temperature         ... 10000.00 K
Pressure            ... 1.00 atm
Total Mass          ... 297.34 AMU

Throughout the following assumptions are being made:
  (1) The electronic state is orbitally nondegenerate
      but the spin degeneracy is treated
  (2) There are no thermally accessible electronically excited states
  (3) Hindered rotations indicated by low frequency modes are not
      treated as such but are treated as vibrations and this may
      cause some error
  (4) All equations used are the standard statistical mechanics
      equations for an ideal gas
  (5) All vibrations are strictly harmonic

freq.      86.92  E(vib)   ...      19.75 
freq.      89.45  E(vib)   ...      19.74 
freq.     128.28  E(vib)   ...      19.69 
freq.     169.73  E(vib)   ...      19.63 
freq.     228.09  E(vib)   ...      19.55 
freq.     297.13  E(vib)   ...      19.45 
freq.     299.72  E(vib)   ...      19.45 
freq.     316.06  E(vib)   ...      19.42 
freq.     326.41  E(vib)   ...      19.41 
freq.     359.21  E(vib)   ...      19.36 
freq.     368.92  E(vib)   ...      19.35 
freq.     388.68  E(vib)   ...      19.32 
freq.     395.70  E(vib)   ...      19.31 
freq.     447.66  E(vib)   ...      19.24 
freq.     452.36  E(vib)   ...      19.23 
freq.     465.12  E(vib)   ...      19.21 
freq.     476.05  E(vib)   ...      19.20 
freq.     497.94  E(vib)   ...      19.17 
freq.     501.52  E(vib)   ...      19.16 
freq.     507.88  E(vib)   ...      19.16 
freq.     513.55  E(vib)   ...      19.15 
freq.     543.27  E(vib)   ...      19.11 
freq.     567.52  E(vib)   ...      19.07 
freq.     584.03  E(vib)   ...      19.05 
freq.     586.01  E(vib)   ...      19.05 
freq.     639.72  E(vib)   ...      18.97 
freq.     653.01  E(vib)   ...      18.95 
freq.     683.60  E(vib)   ...      18.91 
freq.     684.32  E(vib)   ...      18.91 
freq.     688.79  E(vib)   ...      18.90 
freq.     697.29  E(vib)   ...      18.89 
freq.     746.92  E(vib)   ...      18.82 
freq.     769.02  E(vib)   ...      18.79 
freq.     794.99  E(vib)   ...      18.76 
freq.     809.90  E(vib)   ...      18.74 
freq.     836.14  E(vib)   ...      18.70 
freq.     837.72  E(vib)   ...      18.70 
freq.     839.21  E(vib)   ...      18.70 
freq.     849.39  E(vib)   ...      18.68 
freq.     859.83  E(vib)   ...      18.67 
freq.     877.25  E(vib)   ...      18.64 
freq.     894.07  E(vib)   ...      18.62 
freq.     913.30  E(vib)   ...      18.60 
freq.     952.21  E(vib)   ...      18.54 
freq.     982.69  E(vib)   ...      18.50 
freq.     992.22  E(vib)   ...      18.49 
freq.     997.54  E(vib)   ...      18.48 
freq.    1000.14  E(vib)   ...      18.48 
freq.    1002.83  E(vib)   ...      18.47 
freq.    1014.98  E(vib)   ...      18.46 
freq.    1052.10  E(vib)   ...      18.41 
freq.    1143.46  E(vib)   ...      18.28 
freq.    1154.66  E(vib)   ...      18.27 
freq.    1167.32  E(vib)   ...      18.25 
freq.    1172.38  E(vib)   ...      18.24 
freq.    1191.88  E(vib)   ...      18.22 
freq.    1217.35  E(vib)   ...      18.18 
freq.    1232.24  E(vib)   ...      18.16 
freq.    1247.91  E(vib)   ...      18.14 
freq.    1252.69  E(vib)   ...      18.14 
freq.    1255.08  E(vib)   ...      18.13 
freq.    1293.25  E(vib)   ...      18.08 
freq.    1304.86  E(vib)   ...      18.07 
freq.    1346.88  E(vib)   ...      18.01 
freq.    1372.27  E(vib)   ...      17.98 
freq.    1383.98  E(vib)   ...      17.96 
freq.    1405.79  E(vib)   ...      17.93 
freq.    1410.26  E(vib)   ...      17.92 
freq.    1429.71  E(vib)   ...      17.90 
freq.    1440.46  E(vib)   ...      17.88 
freq.    1451.91  E(vib)   ...      17.87 
freq.    1471.10  E(vib)   ...      17.84 
freq.    1479.98  E(vib)   ...      17.83 
freq.    1503.09  E(vib)   ...      17.80 
freq.    1550.40  E(vib)   ...      17.74 
freq.    1555.93  E(vib)   ...      17.73 
freq.    1574.91  E(vib)   ...      17.71 
freq.    1593.33  E(vib)   ...      17.68 
freq.    1608.84  E(vib)   ...      17.66 
freq.    1663.73  E(vib)   ...      17.59 
freq.    1677.98  E(vib)   ...      17.57 
freq.    1688.98  E(vib)   ...      17.56 
freq.    1694.09  E(vib)   ...      17.55 
freq.    2126.37  E(vib)   ...      16.99 
freq.    3204.04  E(vib)   ...      15.64 
freq.    3204.94  E(vib)   ...      15.64 
freq.    3205.35  E(vib)   ...      15.64 
freq.    3211.65  E(vib)   ...      15.63 
freq.    3220.60  E(vib)   ...      15.62 
freq.    3221.50  E(vib)   ...      15.62 
freq.    3222.59  E(vib)   ...      15.62 
freq.    3238.57  E(vib)   ...      15.60 
freq.    3240.19  E(vib)   ...      15.60 

------------
INNER ENERGY
------------

The inner energy is: U= E(el) + E(ZPE) + E(vib) + E(rot) + E(trans)
    E(el)   - is the total energy from the electronic structure calculation
              = E(kin-el) + E(nuc-el) + E(el-el) + E(nuc-nuc)
    E(ZPE)  - the the zero temperature vibrational energy from the frequency calculation
    E(vib)  - the the finite temperature correction to E(ZPE) due to population
              of excited vibrational states
    E(rot)  - is the rotational thermal energy
    E(trans)- is the translational thermal energy

Summary of contributions to the inner energy U:
Electronic energy                ...   -919.83356576 Eh
Zero point energy                ...      0.24535607 Eh     153.96 kcal/mol
Thermal vibrational correction   ...      2.70994862 Eh    1700.51 kcal/mol
Thermal rotational correction    ...      0.04750198 Eh      29.81 kcal/mol
Thermal translational correction ...      0.04750198 Eh      29.81 kcal/mol
-----------------------------------------------------------------------
Total thermal energy                   -916.78325711 Eh


Summary of corrections to the electronic energy:
(perhaps to be used in another calculation)
Total thermal correction                  2.80495257 Eh    1760.13 kcal/mol
Non-thermal (ZPE) correction              0.24535607 Eh     153.96 kcal/mol
-----------------------------------------------------------------------
Total correction                          3.05030864 Eh    1914.09 kcal/mol


--------
ENTHALPY
--------

The enthalpy is H = U + kB*T
                kB is Boltzmann's constant
Total free energy                 ...   -916.78325711 Eh 
Thermal Enthalpy correction       ...      0.03166893 Eh      19.87 kcal/mol
-----------------------------------------------------------------------
Total Enthalpy                    ...   -916.75158819 Eh


Note: Rotational entropy computed according to Herzberg 
Infrared and Raman Spectra, Chapter V,1, Van Nostrand Reinhold, 1945 
Point Group:  Cs, Symmetry Number:   1  
Rotational constants in cm-1:     0.011733     0.011303     0.005757 

Vibrational entropy computed according to the QRRHO of S. Grimme
Chem.Eur.J. 2012 18 9955


-------
ENTROPY
-------

The entropy contributions are T*S = T*(S(el)+S(vib)+S(rot)+S(trans))
     S(el)   - electronic entropy
     S(vib)  - vibrational entropy
     S(rot)  - rotational entropy
     S(trans)- translational entropy
The entropies will be listed as multiplied by the temperature to get
units of energy

Electronic entropy                ...      0.02195057 Eh     13.77 kcal/mol
Vibrational entropy               ...      8.84866734 Eh   5552.61 kcal/mol
Rotational entropy                ...      0.70888526 Eh    444.83 kcal/mol
Translational entropy             ...      0.96281089 Eh    604.17 kcal/mol
-----------------------------------------------------------------------
Final entropy term                ...     10.54231407 Eh   6615.39 kcal/mol

In case the symmetry of your molecule has not been determined correctly
or in case you have a reason to use a different symmetry number we print 
out the resulting rotational entropy values for sn=1,12 :
 --------------------------------------------------------
|  sn= 1 | S(rot)=       0.70888526 Eh    444.83 kcal/mol|
|  sn= 2 | S(rot)=       0.68693469 Eh    431.06 kcal/mol|
|  sn= 3 | S(rot)=       0.67409443 Eh    423.00 kcal/mol|
|  sn= 4 | S(rot)=       0.66498412 Eh    417.28 kcal/mol|
|  sn= 5 | S(rot)=       0.65791761 Eh    412.85 kcal/mol|
|  sn= 6 | S(rot)=       0.65214385 Eh    409.23 kcal/mol|
|  sn= 7 | S(rot)=       0.64726221 Eh    406.16 kcal/mol|
|  sn= 8 | S(rot)=       0.64303354 Eh    403.51 kcal/mol|
|  sn= 9 | S(rot)=       0.63930359 Eh    401.17 kcal/mol|
|  sn=10 | S(rot)=       0.63596703 Eh    399.07 kcal/mol|
|  sn=11 | S(rot)=       0.63294875 Eh    397.18 kcal/mol|
|  sn=12 | S(rot)=       0.63019328 Eh    395.45 kcal/mol|
 --------------------------------------------------------


-------------------
GIBBS FREE ENERGY
-------------------

The Gibbs free energy is G = H - T*S

Total enthalpy                    ...   -916.75158819 Eh 
Total entropy correction          ...    -10.54231407 Eh  -6615.39 kcal/mol
-----------------------------------------------------------------------
Final Gibbs free energy         ...   -927.29390225 Eh

For completeness - the Gibbs free energy minus the electronic energy
G-E(el)                           ...     -7.46033650 Eh  -4681.42 kcal/mol


Timings for individual modules:

Sum of individual times         ...    29656.154 sec (= 494.269 min)
GTO integral calculation        ...       14.850 sec (=   0.248 min)   0.1 %
SCF iterations                  ...     3824.178 sec (=  63.736 min)  12.9 %
SCF Gradient evaluation         ...      998.954 sec (=  16.649 min)   3.4 %
Geometry relaxation             ...        1.505 sec (=   0.025 min)   0.0 %
Analytical frequency calculation...    24816.667 sec (= 413.611 min)  83.7 %
                             ****ORCA TERMINATED NORMALLY****
TOTAL RUN TIME: 0 days 8 hours 14 minutes 22 seconds 288 msec
