
                                 *****************
                                 * O   R   C   A *
                                 *****************

                                            #,                                       
                                            ###                                      
                                            ####                                     
                                            #####                                    
                                            ######                                   
                                           ########,                                 
                                     ,,################,,,,,                         
                               ,,#################################,,                 
                          ,,##########################################,,             
                       ,#########################################, ''#####,          
                    ,#############################################,,   '####,        
                  ,##################################################,,,,####,       
                ,###########''''           ''''###############################       
              ,#####''   ,,,,##########,,,,          '''####'''          '####       
            ,##' ,,,,###########################,,,                        '##       
           ' ,,###''''                  '''############,,,                           
         ,,##''                                '''############,,,,        ,,,,,,###''
      ,#''                                            '''#######################'''  
     '                                                          ''''####''''         
             ,#######,   #######,   ,#######,      ##                                
            ,#'     '#,  ##    ##  ,#'     '#,    #''#        ######   ,####,        
            ##       ##  ##   ,#'  ##            #'  '#       #        #'  '#        
            ##       ##  #######   ##           ,######,      #####,   #    #        
            '#,     ,#'  ##    ##  '#,     ,#' ,#      #,         ##   #,  ,#        
             '#######'   ##     ##  '#######'  #'      '#     #####' # '####'        



                  #######################################################
                  #                        -***-                        #
                  #          Department of theory and spectroscopy      #
                  #    Directorship and core code : Frank Neese         #
                  #        Max Planck Institute fuer Kohlenforschung    #
                  #                Kaiser Wilhelm Platz 1               #
                  #                 D-45470 Muelheim/Ruhr               #
                  #                      Germany                        #
                  #                                                     #
                  #                  All rights reserved                #
                  #                        -***-                        #
                  #######################################################



                         Program Version 5.0.4 -  RELEASE  -

 With contributions from (in alphabetic order):
   Daniel Aravena         : Magnetic Suceptibility
   Michael Atanasov       : Ab Initio Ligand Field Theory (pilot matlab implementation)
   Alexander A. Auer      : GIAO ZORA, VPT2 properties, NMR spectrum
   Ute Becker             : Parallelization
   Giovanni Bistoni       : ED, misc. LED, open-shell LED, HFLD
   Martin Brehm           : Molecular dynamics
   Dmytro Bykov           : SCF Hessian
   Vijay G. Chilkuri      : MRCI spin determinant printing, contributions to CSF-ICE
   Dipayan Datta          : RHF DLPNO-CCSD density
   Achintya Kumar Dutta   : EOM-CC, STEOM-CC
   Dmitry Ganyushin       : Spin-Orbit,Spin-Spin,Magnetic field MRCI
   Miquel Garcia          : C-PCM and meta-GGA Hessian, CC/C-PCM, Gaussian charge scheme
   Yang Guo               : DLPNO-NEVPT2, F12-NEVPT2, CIM, IAO-localization
   Andreas Hansen         : Spin unrestricted coupled pair/coupled cluster methods
   Benjamin Helmich-Paris : MC-RPA, TRAH-SCF, COSX integrals
   Lee Huntington         : MR-EOM, pCC
   Robert Izsak           : Overlap fitted RIJCOSX, COSX-SCS-MP3, EOM
   Marcus Kettner         : VPT2
   Christian Kollmar      : KDIIS, OOCD, Brueckner-CCSD(T), CCSD density, CASPT2, CASPT2-K
   Simone Kossmann        : Meta GGA functionals, TD-DFT gradient, OOMP2, MP2 Hessian
   Martin Krupicka        : Initial AUTO-CI
   Lucas Lang             : DCDCAS
   Marvin Lechner         : AUTO-CI (C++ implementation), FIC-MRCC
   Dagmar Lenk            : GEPOL surface, SMD
   Dimitrios Liakos       : Extrapolation schemes; Compound Job, initial MDCI parallelization
   Dimitrios Manganas     : Further ROCIS development; embedding schemes
   Dimitrios Pantazis     : SARC Basis sets
   Anastasios Papadopoulos: AUTO-CI, single reference methods and gradients
   Taras Petrenko         : DFT Hessian,TD-DFT gradient, ASA, ECA, R-Raman, ABS, FL, XAS/XES, NRVS
   Peter Pinski           : DLPNO-MP2, DLPNO-MP2 Gradient
   Christoph Reimann      : Effective Core Potentials
   Marius Retegan         : Local ZFS, SOC
   Christoph Riplinger    : Optimizer, TS searches, QM/MM, DLPNO-CCSD(T), (RO)-DLPNO pert. Triples
   Tobias Risthaus        : Range-separated hybrids, TD-DFT gradient, RPA, STAB
   Michael Roemelt        : Original ROCIS implementation
   Masaaki Saitow         : Open-shell DLPNO-CCSD energy and density
   Barbara Sandhoefer     : DKH picture change effects
   Avijit Sen             : IP-ROCIS
   Kantharuban Sivalingam : CASSCF convergence, NEVPT2, FIC-MRCI
   Bernardo de Souza      : ESD, SOC TD-DFT
   Georgi Stoychev        : AutoAux, RI-MP2 NMR, DLPNO-MP2 response
   Willem Van den Heuvel  : Paramagnetic NMR
   Boris Wezisla          : Elementary symmetry handling
   Frank Wennmohs         : Technical directorship


 We gratefully acknowledge several colleagues who have allowed us to
 interface, adapt or use parts of their codes:
   Stefan Grimme, W. Hujo, H. Kruse, P. Pracht,  : VdW corrections, initial TS optimization,
                  C. Bannwarth, S. Ehlert          DFT functionals, gCP, sTDA/sTD-DF
   Ed Valeev, F. Pavosevic, A. Kumar             : LibInt (2-el integral package), F12 methods
   Garnet Chan, S. Sharma, J. Yang, R. Olivares  : DMRG
   Ulf Ekstrom                                   : XCFun DFT Library
   Mihaly Kallay                                 : mrcc  (arbitrary order and MRCC methods)
   Jiri Pittner, Ondrej Demel                    : Mk-CCSD
   Frank Weinhold                                : gennbo (NPA and NBO analysis)
   Christopher J. Cramer and Donald G. Truhlar   : smd solvation model
   Lars Goerigk                                  : TD-DFT with DH, B97 family of functionals
   V. Asgeirsson, H. Jonsson                     : NEB implementation
   FAccTs GmbH                                   : IRC, NEB, NEB-TS, DLPNO-Multilevel, CI-OPT
                                                   MM, QMMM, 2- and 3-layer-ONIOM, Crystal-QMMM,
                                                   LR-CPCM, SF, NACMEs, symmetry and pop. for TD-DFT,
                                                   nearIR, NL-DFT gradient (VV10), updates on ESD,
                                                   ML-optimized integration grids
   S Lehtola, MJT Oliveira, MAL Marques          : LibXC Library
   Liviu Ungur et al                             : ANISO software


 Your calculation uses the libint2 library for the computation of 2-el integrals
 For citations please refer to: http://libint.valeyev.net

 Your ORCA version has been built with support for libXC version: 5.1.0
 For citations please refer to: https://tddft.org/programs/libxc/

 This ORCA versions uses:
   CBLAS   interface :  Fast vector & matrix operations
   LAPACKE interface :  Fast linear algebra routines
   Shared memory     :  Shared parallel matrices


XCFun DFT library Copyright 2009-2010 Ulf Ekstrom and contributors.
See http://admol.org/xcfun for more information.
This is free software; see the source code for copying conditions.
There is ABSOLUTELY NO WARRANTY; not even for MERCHANTABILITY or FITNESS FOR A PARTICULAR PURPOSE.
For details see the documentation.
Scientific users of this library should cite U. Ekstrom, L. Visscher, R. Bast, A. J. Thorvaldsen and K. Ruud;
J.Chem.Theor.Comp. 2010, DOI: 10.1021/ct100117s
XCFun Version 0.99 

================================================================================

----- Orbital basis set information -----
Your calculation utilizes the basis: def2-TZVP
   F. Weigend and R. Ahlrichs, Phys. Chem. Chem. Phys. 7, 3297 (2005).

----- AuxJ basis set information -----
Your calculation utilizes the auxiliary basis: def2/J
   F. Weigend, Phys. Chem. Chem. Phys. 8, 1057 (2006).

================================================================================
                                        WARNINGS
                       Please study these warnings very carefully!
================================================================================


WARNING: Geometry Optimization
  ===> : Switching off AutoStart
         For restart on a previous wavefunction, please use MOREAD

WARNING: Minnesota functionals are quite sensitive to the integration grid.
         see SE Wheeler, KN Houk, JCTC 2010, 6, 395,
             N Mardirossian, M Head-Gordon, JCTC 2016, 12, 4303.
         DEFGRID3 seems to be a minimum grid for reliable results with these functionals!
  ===> : Please increase the integration grid!


INFO   : the flag for use of the SHARK integral package has been found!

================================================================================
                                       INPUT FILE
================================================================================
NAME = five_six_two_one_ten_nine_loss.inp
|  1> !M062x def2-tzvp opt freq tightscf
|  2> 
|  3> %freq
|  4> Temp 298.15,10,20,50,100,6000,8000,10000
|  5> end
|  6> 
|  7> %maxcore 4000
|  8> %pal
|  9> nprocs 3
| 10> end
| 11> 
| 12> 
| 13> %geom
| 14>   maxiter 2000
| 15>   end
| 16> 
| 17> * xyz 0 1
| 18>   C   2.46362427987247     -2.85071308273857     -0.00000218907091
| 19>   C   1.27719400513090     -3.52585311672403     -0.00003902795947
| 20>   C   0.05064934326115     -2.82613554872827     -0.00011828018749
| 21>   C   -1.19925193688694     -3.46606389677068     -0.00015928151260
| 22>   C   -2.39885271805658     -2.87183824187673     -0.00023283554738
| 23>   C   -2.43518053153382     -1.44080024452875     -0.00027277196623
| 24>   C   -3.66777674509120     -0.75191121775761     -0.00034379554662
| 25>   C   -3.71279324924276      0.61270000430768     -0.00038290810371
| 26>   C   -2.51870888891228      1.35470401292599     -0.00035207453727
| 27>   C   -2.33852946574720      2.75004532075493     -0.00038523866368
| 28>   C   -1.29227857579710      3.37936032270345     -0.00036005870682
| 29>   C   0.02296635156368      2.87874227377718     -0.00029143038758
| 30>   C   1.23211767469076      3.59211777508479     -0.00026457178571
| 31>   C   2.42594730830480      2.92563510630820     -0.00019121984698
| 32>   C   2.44893445959464      1.52227723319545     -0.00014614397662
| 33>   C   3.55845924150033      0.65762020353451     -0.00006795876215
| 34>   C   3.57066637986837     -0.56331157183495     -0.00002324805222
| 35>   C   2.47403114247392     -1.44414615823703     -0.00004617494814
| 36>   C   1.25557023434205     -0.69183165762109     -0.00012491861115
| 37>   C   1.23800989899349      0.75081893774134     -0.00017659337158
| 38>   C   -0.00359548669936      1.44369816359284     -0.00024809051538
| 39>   C   -1.24385874208543      0.70472511229996     -0.00028011039122
| 40>   C   -1.22033926149096     -0.71624674943317     -0.00023589301594
| 41>   C   0.03056944314590     -1.40895937212992     -0.00016349124726
| 42>   H   3.40592714860256     -3.38099880595279      0.00006084796734
| 43>   H   1.25543248807529     -4.60779790743838     -0.00000593698860
| 44>   H   -4.58380467774224     -1.32989113444890     -0.00036599782084
| 45>   H   -4.65611295060898      1.14148914368134     -0.00043697075864
| 46>   H   1.19941226127863      4.67287271493635     -0.00030009286005
| 47>   H   3.36338199069149      3.46449630946482     -0.00016807868239
| 48> *
| 49> 
| 50>                          ****END OF INPUT****
================================================================================

                       *****************************
                       * Geometry Optimization Run *
                       *****************************

Geometry optimization settings:
Update method            Update   .... BFGS
Choice of coordinates    CoordSys .... Z-matrix Internals
Initial Hessian          InHess   .... Almoef's Model

Convergence Tolerances:
Energy Change            TolE     ....  5.0000e-06 Eh
Max. Gradient            TolMAXG  ....  3.0000e-04 Eh/bohr
RMS Gradient             TolRMSG  ....  1.0000e-04 Eh/bohr
Max. Displacement        TolMAXD  ....  4.0000e-03 bohr
RMS Displacement         TolRMSD  ....  2.0000e-03 bohr
Strict Convergence                ....  False
------------------------------------------------------------------------------
                        ORCA OPTIMIZATION COORDINATE SETUP
------------------------------------------------------------------------------

The optimization will be done in new redundant internal coordinates
Making redundant internal coordinates   ...  (new redundants) done
Evaluating the initial hessian          ...  (Almloef) done
Evaluating the coordinates              ...  done
Calculating the B-matrix                .... done
Calculating the G-matrix                .... done
Diagonalizing the G-matrix              .... done
The first mode is                       ....  111
The number of degrees of freedom        ....   84

    -----------------------------------------------------------------
                    Redundant Internal Coordinates


    -----------------------------------------------------------------
         Definition                    Initial Value    Approx d2E/dq
    -----------------------------------------------------------------
      1. B(C   1,C   0)                  1.3651         0.684706   
      2. B(C   2,C   1)                  1.4121         0.576083   
      3. B(C   3,C   2)                  1.4042         0.593052   
      4. B(C   4,C   3)                  1.3387         0.754341   
      5. B(C   5,C   4)                  1.4315         0.536450   
      6. B(C   6,C   5)                  1.4120         0.576199   
      7. B(C   7,C   6)                  1.3654         0.684007   
      8. B(C   8,C   7)                  1.4058         0.589461   
      9. B(C   9,C   8)                  1.4069         0.587129   
     10. B(C  10,C   9)                  1.2209         1.162716   
     11. B(C  11,C  10)                  1.4073         0.586328   
     12. B(C  12,C  11)                  1.4039         0.593680   
     13. B(C  13,C  12)                  1.3673         0.679207   
     14. B(C  14,C  13)                  1.4035         0.594465   
     15. B(C  15,C  14)                  1.4067         0.587716   
     16. B(C  16,C  15)                  1.2210         1.162462   
     17. B(C  17,C  16)                  1.4066         0.587868   
     18. B(C  17,C   0)                  1.4066         0.587822   
     19. B(C  18,C  17)                  1.4320         0.535464   
     20. B(C  19,C  18)                  1.4428         0.514716   
     21. B(C  19,C  14)                  1.4358         0.528065   
     22. B(C  20,C  19)                  1.4219         0.555801   
     23. B(C  20,C  11)                  1.4353         0.529031   
     24. B(C  21,C  20)                  1.4437         0.512894   
     25. B(C  21,C   8)                  1.4310         0.537466   
     26. B(C  22,C  21)                  1.4212         0.557204   
     27. B(C  22,C   5)                  1.4145         0.571014   
     28. B(C  23,C  22)                  1.4299         0.539604   
     29. B(C  23,C  18)                  1.4195         0.560685   
     30. B(C  23,C   2)                  1.4173         0.565137   
     31. B(H  24,C   0)                  1.0813         0.371840   
     32. B(H  25,C   1)                  1.0822         0.370617   
     33. B(H  26,C   6)                  1.0831         0.369305   
     34. B(H  27,C   7)                  1.0814         0.371631   
     35. B(H  28,C  12)                  1.0812         0.371864   
     36. B(H  29,C  13)                  1.0813         0.371829   
     37. A(C  17,C   0,H  24)          118.9449         0.351645   
     38. A(C   1,C   0,C  17)          120.0660         0.437675   
     39. A(C   1,C   0,H  24)          120.9890         0.360873   
     40. A(C   0,C   1,C   2)          120.6541         0.436087   
     41. A(C   2,C   1,H  25)          118.5516         0.350254   
     42. A(C   0,C   1,H  25)          120.7944         0.360670   
     43. A(C   1,C   2,C  23)          120.5156         0.421333   
     44. A(C   1,C   2,C   3)          123.1845         0.424979   
     45. A(C   3,C   2,C  23)          116.2999         0.423524   
     46. A(C   2,C   3,C   4)          126.5367         0.446119   
     47. A(C   3,C   4,C   5)          117.8058         0.438102   
     48. A(C   4,C   5,C  22)          119.3584         0.416781   
     49. A(C   4,C   5,C   6)          120.6547         0.417452   
     50. A(C   6,C   5,C  22)          119.9869         0.422127   
     51. A(C   5,C   6,H  26)          118.5491         0.350056   
     52. A(C   5,C   6,C   7)          121.0899         0.436023   
     53. A(C   7,C   6,H  26)          120.3610         0.360389   
     54. A(C   6,C   7,C   8)          119.9674         0.437815   
     55. A(C   8,C   7,H  27)          118.8699         0.351777   
     56. A(C   6,C   7,H  27)          121.1627         0.360775   
     57. A(C   9,C   8,C  21)          109.6568         0.418993   
     58. A(C   7,C   8,C   9)          129.2147         0.425963   
     59. A(C   7,C   8,C  21)          121.1285         0.419290   
     60. A(C   8,C   9,C  10)          128.3846         0.481967   
     61. A(C   9,C  10,C  11)          128.1351         0.481846   
     62. A(C  12,C  11,C  20)          121.6002         0.418641   
     63. A(C  10,C  11,C  20)          109.7778         0.417713   
     64. A(C  10,C  11,C  12)          128.6220         0.426403   
     65. A(C  11,C  12,H  28)          118.8064         0.352239   
     66. A(C  11,C  12,C  13)          120.2868         0.437822   
     67. A(C  13,C  12,H  28)          120.9068         0.360381   
     68. A(C  14,C  13,H  29)          118.9530         0.352312   
     69. A(C  12,C  13,H  29)          120.9352         0.360375   
     70. A(C  12,C  13,C  14)          120.1119         0.437926   
     71. A(C  13,C  14,C  15)          128.8679         0.426685   
     72. A(C  15,C  14,C  19)          109.5701         0.417752   
     73. A(C  13,C  14,C  19)          121.5621         0.418603   
     74. A(C  14,C  15,C  16)          128.5023         0.482036   
     75. A(C  15,C  16,C  17)          128.1991         0.482060   
     76. A(C  16,C  17,C  18)          109.5356         0.418809   
     77. A(C   0,C  17,C  18)          121.2685         0.418803   
     78. A(C   0,C  17,C  16)          129.1959         0.425847   
     79. A(C  17,C  18,C  19)          122.3898         0.409037   
     80. A(C  19,C  18,C  23)          119.6477         0.412388   
     81. A(C  17,C  18,C  23)          117.9624         0.415293   
     82. A(C  18,C  19,C  20)          119.8611         0.411748   
     83. A(C  14,C  19,C  20)          118.3358         0.413624   
     84. A(C  14,C  19,C  18)          121.8031         0.408030   
     85. A(C  11,C  20,C  19)          118.1034         0.413758   
     86. A(C  19,C  20,C  21)          120.0489         0.411489   
     87. A(C  11,C  20,C  21)          121.8477         0.407906   
     88. A(C  20,C  21,C  22)          119.8391         0.411673   
     89. A(C   8,C  21,C  22)          117.9629         0.415109   
     90. A(C   8,C  21,C  20)          122.1981         0.409050   
     91. A(C  21,C  22,C  23)          119.9245         0.415402   
     92. A(C   5,C  22,C  23)          120.2111         0.417216   
     93. A(C   5,C  22,C  21)          119.8644         0.419609   
     94. A(C  18,C  23,C  22)          120.6786         0.415863   
     95. A(C   2,C  23,C  22)          119.7880         0.416448   
     96. A(C   2,C  23,C  18)          119.5334         0.419301   
     97. D(H  25,C   1,C   0,C  17)    180.0000         0.032899   
     98. D(C   2,C   1,C   0,C  17)     -0.0001         0.032899   
     99. D(H  25,C   1,C   0,H  24)     -0.0000         0.032899   
    100. D(C   2,C   1,C   0,H  24)    179.9999         0.032899   
    101. D(C   3,C   2,C   1,H  25)     -0.0001         0.022787   
    102. D(C   3,C   2,C   1,C   0)    180.0000         0.022787   
    103. D(C  23,C   2,C   1,C   0)      0.0001         0.022787   
    104. D(C  23,C   2,C   1,H  25)    180.0000         0.022787   
    105. D(C   4,C   3,C   2,C  23)     -0.0002         0.021974   
    106. D(C   4,C   3,C   2,C   1)    179.9999         0.021974   
    107. D(C   5,C   4,C   3,C   2)     -0.0001         0.032552   
    108. D(C   6,C   5,C   4,C   3)   -179.9997         0.017864   
    109. D(C  22,C   5,C   4,C   3)      0.0001         0.017864   
    110. D(C   7,C   6,C   5,C  22)      0.0002         0.022796   
    111. D(C   7,C   6,C   5,C   4)   -180.0000         0.022796   
    112. D(H  26,C   6,C   5,C  22)   -179.9997         0.022796   
    113. D(H  26,C   6,C   5,C   4)      0.0001         0.022796   
    114. D(H  27,C   7,C   6,H  26)     -0.0000         0.032827   
    115. D(H  27,C   7,C   6,C   5)   -180.0000         0.032827   
    116. D(C   8,C   7,C   6,H  26)    179.9999         0.032827   
    117. D(C   8,C   7,C   6,C   5)     -0.0000         0.032827   
    118. D(C   9,C   8,C   7,C   6)    179.9999         0.023909   
    119. D(C  21,C   8,C   7,C   6)      0.0000         0.023909   
    120. D(C  21,C   8,C   7,H  27)    180.0000         0.023909   
    121. D(C   9,C   8,C   7,H  27)     -0.0002         0.023909   
    122. D(C  10,C   9,C   8,C  21)     -0.0000         0.021519   
    123. D(C  10,C   9,C   8,C   7)   -179.9999         0.021519   
    124. D(C  11,C  10,C   9,C   8)      0.0000         0.086136   
    125. D(C  20,C  11,C  10,C   9)     -0.0001         0.021458   
    126. D(C  12,C  11,C  10,C   9)    179.9999         0.021458   
    127. D(C  13,C  12,C  11,C  10)    179.9998         0.024270   
    128. D(H  28,C  12,C  11,C  20)    180.0000         0.024270   
    129. D(H  28,C  12,C  11,C  10)     -0.0001         0.024270   
    130. D(C  13,C  12,C  11,C  20)     -0.0002         0.024270   
    131. D(H  29,C  13,C  12,H  28)     -0.0001         0.032332   
    132. D(H  29,C  13,C  12,C  11)   -179.9999         0.032332   
    133. D(C  14,C  13,C  12,H  28)   -180.0000         0.032332   
    134. D(C  14,C  13,C  12,C  11)      0.0002         0.032332   
    135. D(C  19,C  14,C  13,H  29)   -179.9999         0.024338   
    136. D(C  19,C  14,C  13,C  12)      0.0001         0.024338   
    137. D(C  15,C  14,C  13,H  29)      0.0002         0.024338   
    138. D(C  15,C  14,C  13,C  12)   -179.9999         0.024338   
    139. D(C  16,C  15,C  14,C  19)     -0.0003         0.021564   
    140. D(C  16,C  15,C  14,C  13)    179.9996         0.021564   
    141. D(C  17,C  16,C  15,C  14)      0.0004         0.086092   
    142. D(C  18,C  17,C  16,C  15)     -0.0004         0.021575   
    143. D(C   0,C  17,C  16,C  15)    179.9997         0.021575   
    144. D(C  18,C  17,C   0,H  24)   -179.9998         0.023770   
    145. D(C  18,C  17,C   0,C   1)      0.0002         0.023770   
    146. D(C  16,C  17,C   0,H  24)      0.0002         0.023770   
    147. D(C  16,C  17,C   0,C   1)   -179.9998         0.023770   
    148. D(C  23,C  18,C  17,C  16)    179.9998         0.019582   
    149. D(C  23,C  18,C  17,C   0)     -0.0003         0.019582   
    150. D(C  19,C  18,C  17,C  16)      0.0003         0.019582   
    151. D(C  19,C  18,C  17,C   0)   -179.9998         0.019582   
    152. D(C  20,C  19,C  18,C  17)   -179.9997         0.018061   
    153. D(C  14,C  19,C  18,C  23)   -179.9997         0.018061   
    154. D(C  14,C  19,C  18,C  17)     -0.0003         0.018061   
    155. D(C  20,C  19,C  14,C  15)    179.9997         0.019030   
    156. D(C  20,C  19,C  14,C  13)     -0.0003         0.019030   
    157. D(C  18,C  19,C  14,C  15)      0.0002         0.019030   
    158. D(C  20,C  19,C  18,C  23)      0.0008         0.018061   
    159. D(C  18,C  19,C  14,C  13)   -179.9997         0.019030   
    160. D(C  21,C  20,C  19,C  14)   -180.0000         0.021148   
    161. D(C  11,C  20,C  19,C  18)    179.9997         0.021148   
    162. D(C  11,C  20,C  19,C  14)      0.0002         0.021148   
    163. D(C  21,C  20,C  11,C  12)   -179.9998         0.019102   
    164. D(C  21,C  20,C  11,C  10)      0.0002         0.019102   
    165. D(C  19,C  20,C  11,C  12)     -0.0000         0.019102   
    166. D(C  21,C  20,C  19,C  18)     -0.0005         0.021148   
    167. D(C  19,C  20,C  11,C  10)    180.0000         0.019102   
    168. D(C  22,C  21,C  20,C  11)    180.0000         0.017931   
    169. D(C   8,C  21,C  20,C  19)   -180.0000         0.017931   
    170. D(C   8,C  21,C  20,C  11)     -0.0002         0.017931   
    171. D(C  22,C  21,C   8,C   9)    179.9999         0.019733   
    172. D(C  22,C  21,C   8,C   7)     -0.0002         0.019733   
    173. D(C  20,C  21,C   8,C   9)      0.0001         0.019733   
    174. D(C  22,C  21,C  20,C  19)      0.0002         0.017931   
    175. D(C  20,C  21,C   8,C   7)    180.0000         0.019733   
    176. D(C  23,C  22,C  21,C   8)   -180.0000         0.021259   
    177. D(C   5,C  22,C  21,C  20)   -179.9997         0.021259   
    178. D(C   5,C  22,C  21,C   8)      0.0004         0.021259   
    179. D(C  23,C  22,C   5,C   6)    180.0000         0.022370   
    180. D(C  23,C  22,C   5,C   4)      0.0002         0.022370   
    181. D(C  21,C  22,C   5,C   6)     -0.0004         0.022370   
    182. D(C  23,C  22,C  21,C  20)     -0.0002         0.021259   
    183. D(C  21,C  22,C   5,C   4)    179.9998         0.022370   
    184. D(C  18,C  23,C  22,C  21)      0.0005         0.019895   
    185. D(C  18,C  23,C  22,C   5)   -180.0000         0.019895   
    186. D(C   2,C  23,C  22,C  21)    179.9999         0.019895   
    187. D(C   2,C  23,C  22,C   5)     -0.0005         0.019895   
    188. D(C  22,C  23,C  18,C  19)     -0.0008         0.021536   
    189. D(C  22,C  23,C  18,C  17)    179.9997         0.021536   
    190. D(C   2,C  23,C  18,C  19)    179.9997         0.021536   
    191. D(C   2,C  23,C  18,C  17)      0.0002         0.021536   
    192. D(C  22,C  23,C   2,C   3)      0.0005         0.021893   
    193. D(C  22,C  23,C   2,C   1)   -179.9996         0.021893   
    194. D(C  18,C  23,C   2,C   3)    179.9999         0.021893   
    195. D(C  18,C  23,C   2,C   1)     -0.0002         0.021893   
    -----------------------------------------------------------------

Number of atoms                         .... 30
Number of degrees of freedom            .... 195

         *************************************************************
         *                GEOMETRY OPTIMIZATION CYCLE   1            *
         *************************************************************
---------------------------------
CARTESIAN COORDINATES (ANGSTROEM)
---------------------------------
  C      2.463624   -2.850713   -0.000002
  C      1.277194   -3.525853   -0.000039
  C      0.050649   -2.826136   -0.000118
  C     -1.199252   -3.466064   -0.000159
  C     -2.398853   -2.871838   -0.000233
  C     -2.435181   -1.440800   -0.000273
  C     -3.667777   -0.751911   -0.000344
  C     -3.712793    0.612700   -0.000383
  C     -2.518709    1.354704   -0.000352
  C     -2.338529    2.750045   -0.000385
  C     -1.292279    3.379360   -0.000360
  C      0.022966    2.878742   -0.000291
  C      1.232118    3.592118   -0.000265
  C      2.425947    2.925635   -0.000191
  C      2.448934    1.522277   -0.000146
  C      3.558459    0.657620   -0.000068
  C      3.570666   -0.563312   -0.000023
  C      2.474031   -1.444146   -0.000046
  C      1.255570   -0.691832   -0.000125
  C      1.238010    0.750819   -0.000177
  C     -0.003595    1.443698   -0.000248
  C     -1.243859    0.704725   -0.000280
  C     -1.220339   -0.716247   -0.000236
  C      0.030569   -1.408959   -0.000163
  H      3.405927   -3.380999    0.000061
  H      1.255432   -4.607798   -0.000006
  H     -4.583805   -1.329891   -0.000366
  H     -4.656113    1.141489   -0.000437
  H      1.199412    4.672873   -0.000300
  H      3.363382    3.464496   -0.000168

----------------------------
CARTESIAN COORDINATES (A.U.)
----------------------------
  NO LB      ZA    FRAG     MASS         X           Y           Z
   0 C     6.0000    0    12.011    4.655575   -5.387067   -0.000004
   1 C     6.0000    0    12.011    2.413547   -6.662897   -0.000074
   2 C     6.0000    0    12.011    0.095713   -5.340622   -0.000224
   3 C     6.0000    0    12.011   -2.266258   -6.549912   -0.000301
   4 C     6.0000    0    12.011   -4.533175   -5.426988   -0.000440
   5 C     6.0000    0    12.011   -4.601824   -2.722718   -0.000515
   6 C     6.0000    0    12.011   -6.931094   -1.420906   -0.000650
   7 C     6.0000    0    12.011   -7.016162    1.157835   -0.000724
   8 C     6.0000    0    12.011   -4.759670    2.560020   -0.000665
   9 C     6.0000    0    12.011   -4.419180    5.196833   -0.000728
  10 C     6.0000    0    12.011   -2.442053    6.386066   -0.000680
  11 C     6.0000    0    12.011    0.043400    5.440035   -0.000551
  12 C     6.0000    0    12.011    2.328365    6.788119   -0.000500
  13 C     6.0000    0    12.011    4.584376    5.528649   -0.000361
  14 C     6.0000    0    12.011    4.627815    2.876687   -0.000276
  15 C     6.0000    0    12.011    6.724513    1.242722   -0.000128
  16 C     6.0000    0    12.011    6.747582   -1.064505   -0.000044
  17 C     6.0000    0    12.011    4.675241   -2.729041   -0.000087
  18 C     6.0000    0    12.011    2.372684   -1.307372   -0.000236
  19 C     6.0000    0    12.011    2.339500    1.418842   -0.000334
  20 C     6.0000    0    12.011   -0.006794    2.728194   -0.000469
  21 C     6.0000    0    12.011   -2.350552    1.331737   -0.000529
  22 C     6.0000    0    12.011   -2.306107   -1.353510   -0.000446
  23 C     6.0000    0    12.011    0.057768   -2.662547   -0.000309
  24 H     1.0000    0     1.008    6.436270   -6.389162    0.000115
  25 H     1.0000    0     1.008    2.372424   -8.707476   -0.000011
  26 H     1.0000    0     1.008   -8.662135   -2.513130   -0.000692
  27 H     1.0000    0     1.008   -8.798778    2.157102   -0.000826
  28 H     1.0000    0     1.008    2.266561    8.830450   -0.000567
  29 H     1.0000    0     1.008    6.355871    6.546949   -0.000318

--------------------------------
INTERNAL COORDINATES (ANGSTROEM)
--------------------------------
 C      0   0   0     0.000000000000     0.00000000     0.00000000
 C      1   0   0     1.365075405855     0.00000000     0.00000000
 C      2   1   0     1.412096487073   120.65405474     0.00000000
 C      3   2   1     1.404194253807   123.18448403   179.99999548
 C      4   3   2     1.338710636593   126.53667483   179.99993029
 C      5   4   3     1.431499026015   117.80582306     0.00000000
 C      6   5   4     1.412041614800   120.65468373   180.00031337
 C      7   6   5     1.365353534643   121.08992386   180.00002878
 C      8   7   6     1.405847576853   119.96739963     0.00000000
 C      9   8   7     1.406926434099   129.21466480   179.99985058
 C     10   9   8     1.220933371250   128.38455854   180.00014667
 C     11  10   9     1.407297997785   128.13510071     0.00000000
 C     12  11  10     1.403905811943   128.62204290   179.99986207
 C     13  12  11     1.367270400197   120.28679399   179.99978107
 C     14  13  12     1.403546127202   120.11186410     0.00000000
 C     15  14  13     1.406654551309   128.86785381   180.00012098
 C     16  15  14     1.220992799460   128.50226321   179.99964904
 C     17  16  15     1.406583951644   128.19913909     0.00000000
 C     18  17  16     1.432000034456   109.53559171     0.00000000
 C     15  14  13     1.435787656312   121.56205315     0.00000000
 C     20  15  14     1.421852861765   118.33577083     0.00000000
 C      9   8   7     1.430984092610   121.12854471     0.00000000
 C      6   5   4     1.414502414284   119.35844359     0.00000000
 C      3   2   1     1.417318425743   120.51560303     0.00000000
 H      1   2   3     1.081266687102   120.98903654   179.99985380
 H      2   1   3     1.082163617423   120.79436281   180.00013951
 H      7   6   5     1.083128781811   118.54907638     0.00000000
 H      8   7   6     1.081420369619   121.16274943   180.00002077
 H     13  12  11     1.081249686863   118.80643386     0.00000000
 H     14  13  12     1.081274794187   120.93518279   180.00011322

---------------------------
INTERNAL COORDINATES (A.U.)
---------------------------
 C      0   0   0     0.000000000000     0.00000000     0.00000000
 C      1   0   0     2.579618669217     0.00000000     0.00000000
 C      2   1   0     2.668475635240   120.65405474     0.00000000
 C      3   2   1     2.653542578522   123.18448403   179.99999548
 C      4   3   2     2.529796475728   126.53667483   179.99993029
 C      5   4   3     2.705141120143   117.80582306     0.00000000
 C      6   5   4     2.668371941671   120.65468373   180.00031337
 C      7   6   5     2.580144256457   121.08992386   180.00002878
 C      8   7   6     2.656666906288   119.96739963     0.00000000
 C      9   8   7     2.658705651021   129.21466480   179.99985058
 C     10   9   8     2.307229699428   128.38455854   180.00014667
 C     11  10   9     2.659407804629   128.13510071     0.00000000
 C     12  11  10     2.652997502393   128.62204290   179.99986207
 C     13  12  11     2.583766607389   120.28679399   179.99978107
 C     14  13  12     2.652317796738   120.11186410     0.00000000
 C     15  14  13     2.658191867008   128.86785381   180.00012098
 C     16  15  14     2.307342002469   128.50226321   179.99964904
 C     17  16  15     2.658058452976   128.19913909     0.00000000
 C     18  17  16     2.706087888888   109.53559171     0.00000000
 C     15  14  13     2.713245456895   121.56205315     0.00000000
 C     20  15  14     2.686912511468   118.33577083     0.00000000
 C      9   8   7     2.704168037030   121.12854471     0.00000000
 C      6   5   4     2.673022178767   119.35844359     0.00000000
 C      3   2   1     2.678343669215   120.51560303     0.00000000
 H      1   2   3     2.043297916354   120.98903654   179.99985380
 H      2   1   3     2.044992869023   120.79436281   180.00013951
 H      7   6   5     2.046816765391   118.54907638     0.00000000
 H      8   7   6     2.043588334225   121.16274943   180.00002077
 H     13  12  11     2.043265790560   118.80643386     0.00000000
 H     14  13  12     2.043313236526   120.93518279   180.00011322

---------------------
BASIS SET INFORMATION
---------------------
There are 2 groups of distinct atoms

 Group   1 Type C   : 11s6p2d1f contracted to 5s3p2d1f pattern {62111/411/11/1}
 Group   2 Type H   : 5s1p contracted to 3s1p pattern {311/1}

Atom   0C    basis set group =>   1
Atom   1C    basis set group =>   1
Atom   2C    basis set group =>   1
Atom   3C    basis set group =>   1
Atom   4C    basis set group =>   1
Atom   5C    basis set group =>   1
Atom   6C    basis set group =>   1
Atom   7C    basis set group =>   1
Atom   8C    basis set group =>   1
Atom   9C    basis set group =>   1
Atom  10C    basis set group =>   1
Atom  11C    basis set group =>   1
Atom  12C    basis set group =>   1
Atom  13C    basis set group =>   1
Atom  14C    basis set group =>   1
Atom  15C    basis set group =>   1
Atom  16C    basis set group =>   1
Atom  17C    basis set group =>   1
Atom  18C    basis set group =>   1
Atom  19C    basis set group =>   1
Atom  20C    basis set group =>   1
Atom  21C    basis set group =>   1
Atom  22C    basis set group =>   1
Atom  23C    basis set group =>   1
Atom  24H    basis set group =>   2
Atom  25H    basis set group =>   2
Atom  26H    basis set group =>   2
Atom  27H    basis set group =>   2
Atom  28H    basis set group =>   2
Atom  29H    basis set group =>   2
---------------------------------
AUXILIARY/J BASIS SET INFORMATION
---------------------------------
There are 2 groups of distinct atoms

 Group   1 Type C   : 12s5p4d2f1g contracted to 6s4p3d1f1g pattern {711111/2111/211/2/1}
 Group   2 Type H   : 5s2p1d contracted to 3s1p1d pattern {311/2/1}

Atom   0C    basis set group =>   1
Atom   1C    basis set group =>   1
Atom   2C    basis set group =>   1
Atom   3C    basis set group =>   1
Atom   4C    basis set group =>   1
Atom   5C    basis set group =>   1
Atom   6C    basis set group =>   1
Atom   7C    basis set group =>   1
Atom   8C    basis set group =>   1
Atom   9C    basis set group =>   1
Atom  10C    basis set group =>   1
Atom  11C    basis set group =>   1
Atom  12C    basis set group =>   1
Atom  13C    basis set group =>   1
Atom  14C    basis set group =>   1
Atom  15C    basis set group =>   1
Atom  16C    basis set group =>   1
Atom  17C    basis set group =>   1
Atom  18C    basis set group =>   1
Atom  19C    basis set group =>   1
Atom  20C    basis set group =>   1
Atom  21C    basis set group =>   1
Atom  22C    basis set group =>   1
Atom  23C    basis set group =>   1
Atom  24H    basis set group =>   2
Atom  25H    basis set group =>   2
Atom  26H    basis set group =>   2
Atom  27H    basis set group =>   2
Atom  28H    basis set group =>   2
Atom  29H    basis set group =>   2


           ************************************************************
           *        Program running with 3 parallel MPI-processes     *
           *              working on a common directory               *
           ************************************************************
------------------------------------------------------------------------------
                           ORCA GTO INTEGRAL CALCULATION
                           -- RI-GTO INTEGRALS CHOSEN --
------------------------------------------------------------------------------
------------------------------------------------------------------------------
                   ___                                                        
                  /   \      - P O W E R E D   B Y -                         
                 /     \                                                     
                 |  |  |   _    _      __       _____    __    __             
                 |  |  |  | |  | |    /  \     |  _  \  |  |  /  |          
                  \  \/   | |  | |   /    \    | | | |  |  | /  /          
                 / \  \   | |__| |  /  /\  \   | |_| |  |  |/  /          
                |  |  |   |  __  | /  /__\  \  |    /   |      \           
                |  |  |   | |  | | |   __   |  |    \   |  |\   \          
                \     /   | |  | | |  |  |  |  | |\  \  |  | \   \       
                 \___/    |_|  |_| |__|  |__|  |_| \__\ |__|  \__/        
                                                                              
                      - O R C A' S   B I G   F R I E N D -                    
                                      &                                       
                       - I N T E G R A L  F E E D E R -                       
                                                                              
 v1 FN, 2020, v2 2021                                                         
------------------------------------------------------------------------------


Reading SHARK input file five_six_two_one_ten_nine_loss.SHARKINP.tmp ... ok
----------------------
SHARK INTEGRAL PACKAGE
----------------------

Number of atoms                             ...     30
Number of basis functions                   ...    780
Number of shells                            ...    288
Maximum angular momentum                    ...      3
Integral batch strategy                     ... SHARK/LIBINT Hybrid
RI-J (if used) integral strategy            ... SPLIT-RIJ (Revised 2003 algorithm where possible)
Printlevel                                  ...      1
Contraction scheme used                     ... SEGMENTED contraction
Coulomb Range Separation                    ... NOT USED
Exchange Range Separation                   ... NOT USED
Finite Nucleus Model                        ... NOT USED
Auxiliary Coulomb fitting basis             ... AVAILABLE
   # of basis functions in Aux-J            ...   1242
   # of shells in Aux-J                     ...    390
   Maximum angular momentum in Aux-J        ...      4
Auxiliary J/K fitting basis                 ... NOT available
Auxiliary Correlation fitting basis         ... NOT available
Auxiliary 'external' fitting basis          ... NOT available
Integral threshold                          ...     2.500000e-11
Primitive cut-off                           ...     2.500000e-12
Primitive pair pre-selection threshold      ...     2.500000e-12

Calculating pre-screening integrals         ... done (  0.1 sec) Dimension = 288
Organizing shell pair data                  ... done (  0.9 sec)
Shell pair information
Total number of shell pairs                 ...     41616
Shell pairs after pre-screening             ...     32524
Total number of primitive shell pairs       ...    133932
Primitive shell pairs kept                  ...     69758
          la=0 lb=0:   6870 shell pairs
          la=1 lb=0:   8822 shell pairs
          la=1 lb=1:   2734 shell pairs
          la=2 lb=0:   5003 shell pairs
          la=2 lb=1:   3176 shell pairs
          la=2 lb=2:    935 shell pairs
          la=3 lb=0:   2340 shell pairs
          la=3 lb=1:   1544 shell pairs
          la=3 lb=2:    874 shell pairs
          la=3 lb=3:    226 shell pairs

Calculating one electron integrals          ... done (  0.1 sec)
Calculating RI/J V-Matrix + Cholesky decomp.... done (  0.1 sec)
Calculating Nuclear repulsion               ... done (  0.0 sec) ENN=   1727.080302424207 Eh

SHARK setup successfully completed in   2.1 seconds

Maximum memory used throughout the entire GTOINT-calculation: 51.7 MB


           ************************************************************
           *        Program running with 3 parallel MPI-processes     *
           *              working on a common directory               *
           ************************************************************
-------------------------------------------------------------------------------
                                 ORCA SCF
-------------------------------------------------------------------------------

------------
SCF SETTINGS
------------
Hamiltonian:
 Density Functional     Method          .... DFT(GTOs)
 Exchange Functional    Exchange        .... M062X
 Correlation Functional Correlation     .... M062X
 Gradients option       PostSCFGGA      .... off
 Hybrid DFT is turned on
   Fraction HF Exchange ScalHFX         ....  0.540000
   Scaling of DF-GGA-X  ScalDFX         ....  0.460000
   Scaling of DF-GGA-C  ScalDFC         ....  1.000000
   Scaling of DF-LDA-C  ScalLDAC        ....  1.000000
   Perturbative correction              ....  0.000000
   Density functional embedding theory  .... OFF
 RI-approximation to the Coulomb term is turned on
   Number of AuxJ basis functions       .... 1242
   RIJ-COSX (HFX calculated with COS-X)).... on


General Settings:
 Integral files         IntName         .... five_six_two_one_ten_nine_loss
 Hartree-Fock type      HFTyp           .... RHF
 Total Charge           Charge          ....    0
 Multiplicity           Mult            ....    1
 Number of Electrons    NEL             ....  150
 Basis Dimension        Dim             ....  780
 Nuclear Repulsion      ENuc            ....   1727.0803024242 Eh

Convergence Acceleration:
 DIIS                   CNVDIIS         .... on
   Start iteration      DIISMaxIt       ....    12
   Startup error        DIISStart       ....  0.200000
   # of expansion vecs  DIISMaxEq       ....     5
   Bias factor          DIISBfac        ....   1.050
   Max. coefficient     DIISMaxC        ....  10.000
 Trust-Rad. Augm. Hess. CNVTRAH         .... auto
   Auto Start mean grad. ratio tolernc. ....  1.125000
   Auto Start start iteration           ....    20
   Auto Start num. interpolation iter.  ....    10
   Max. Number of Micro iterations      ....    16
   Max. Number of Macro iterations      .... Maxiter - #DIIS iter
   Number of Davidson start vectors     ....     2
   Converg. threshold I  (grad. norm)   ....   1.000e-05
   Converg. threshold II (energy diff.) ....   1.000e-08
   Grad. Scal. Fac. for Micro threshold ....   0.100
   Minimum threshold for Micro iter.    ....   0.010
   NR start threshold (gradient norm)   ....   0.001
   Initial trust radius                 ....   0.400
   Minimum AH scaling param. (alpha)    ....   1.000
   Maximum AH scaling param. (alpha)    .... 1000.000
   Orbital update algorithm             .... Taylor
   White noise on init. David. guess    .... on
   Maximum white noise                  ....   0.010
   Quad. conv. algorithm                .... NR
 SOSCF                  CNVSOSCF        .... on
   Start iteration      SOSCFMaxIt      ....   150
   Startup grad/error   SOSCFStart      ....  0.003300
 Level Shifting         CNVShift        .... on
   Level shift para.    LevelShift      ....    0.2500
   Turn off err/grad.   ShiftErr        ....    0.0010
 Zerner damping         CNVZerner       .... off
 Static damping         CNVDamp         .... on
   Fraction old density DampFac         ....    0.7000
   Max. Damping (<1)    DampMax         ....    0.9800
   Min. Damping (>=0)   DampMin         ....    0.0000
   Turn off err/grad.   DampErr         ....    0.1000
 Fernandez-Rico         CNVRico         .... off

SCF Procedure:
 Maximum # iterations   MaxIter         ....   125
 SCF integral mode      SCFMode         .... Direct
   Integral package                     .... SHARK and LIBINT hybrid scheme
 Reset frequency        DirectResetFreq ....    20
 Integral Threshold     Thresh          ....  2.500e-11 Eh
 Primitive CutOff       TCut            ....  2.500e-12 Eh

Convergence Tolerance:
 Convergence Check Mode ConvCheckMode   .... Total+1el-Energy
 Convergence forced     ConvForced      .... 0
 Energy Change          TolE            ....  1.000e-08 Eh
 1-El. energy change                    ....  1.000e-05 Eh
 Orbital Gradient       TolG            ....  1.000e-05
 Orbital Rotation angle TolX            ....  1.000e-05
 DIIS Error             TolErr          ....  5.000e-07


Diagonalization of the overlap matrix:
Smallest eigenvalue                        ... 7.491e-07
Time for diagonalization                   ...    0.063 sec
Threshold for overlap eigenvalues          ... 1.000e-08
Number of eigenvalues below threshold      ... 0
Time for construction of square roots      ...    0.052 sec
Total time needed                          ...    0.117 sec

Time for model grid setup =    0.478 sec

------------------------------
INITIAL GUESS: MODEL POTENTIAL
------------------------------
Loading Hartree-Fock densities                     ... done
Calculating cut-offs                               ... done
Initializing the effective Hamiltonian             ... done
Setting up the integral package (SHARK)            ... done
Starting the Coulomb interaction                   ... done (   1.3 sec)
Reading the grid                                   ... done
Mapping shells                                     ... done
Starting the XC term evaluation                    ... done (   0.9 sec)
  promolecular density results
     # of electrons  =    149.983828816
     EX              =   -124.528356829
     EC              =     -5.080936692
     EX+EC           =   -129.609293520
Transforming the Hamiltonian                       ... done (   0.0 sec)
Diagonalizing the Hamiltonian                      ... done (   0.1 sec)
Back transforming the eigenvectors                 ... done (   0.0 sec)
Now organizing SCF variables                       ... done
                      ------------------
                      INITIAL GUESS DONE (   2.8 sec)
                      ------------------
-------------------
DFT GRID GENERATION
-------------------

General Integration Accuracy     IntAcc      ... 4.388
Radial Grid Type                 RadialGrid  ... OptM3 with GC (2021)
Angular Grid (max. ang.)         AngularGrid ... 4 (Lebedev-302)
Angular grid pruning method      GridPruning ... 4 (adaptive)
Weight generation scheme         WeightScheme... Becke
Basis function cutoff            BFCut       ... 1.0000e-11
Integration weight cutoff        WCut        ... 1.0000e-14
Angular grids for H and He will be reduced by one unit
Partially contracted basis set               ... off
Rotationally invariant grid construction     ... off

Total number of grid points                  ...   161677
Total number of batches                      ...     2539
Average number of points per batch           ...       63
Average number of grid points per atom       ...     5389
Time for grid setup =    1.345 sec

--------------------
COSX GRID GENERATION
--------------------

GRIDX 1
-------
General Integration Accuracy     IntAcc      ... 3.816
Radial Grid Type                 RadialGrid  ... OptM3 with GC (2021)
Angular Grid (max. ang.)         AngularGrid ... 1 (Lebedev-50)
Angular grid pruning method      GridPruning ... 4 (adaptive)
Weight generation scheme         WeightScheme... Becke
Basis function cutoff            BFCut       ... 1.0000e-11
Integration weight cutoff        WCut        ... 1.0000e-14
Angular grids for H and He will be reduced by one unit
Partially contracted basis set               ... on
Rotationally invariant grid construction     ... off

Total number of grid points                  ...    20511
Total number of batches                      ...      335
Average number of points per batch           ...       61
Average number of grid points per atom       ...      684
UseSFitting                                  ... on

GRIDX 2
-------
General Integration Accuracy     IntAcc      ... 4.020
Radial Grid Type                 RadialGrid  ... OptM3 with GC (2021)
Angular Grid (max. ang.)         AngularGrid ... 2 (Lebedev-110)
Angular grid pruning method      GridPruning ... 4 (adaptive)
Weight generation scheme         WeightScheme... Becke
Basis function cutoff            BFCut       ... 1.0000e-11
Integration weight cutoff        WCut        ... 1.0000e-14
Angular grids for H and He will be reduced by one unit
Partially contracted basis set               ... on
Rotationally invariant grid construction     ... off

Total number of grid points                  ...    46249
Total number of batches                      ...      737
Average number of points per batch           ...       62
Average number of grid points per atom       ...     1542
UseSFitting                                  ... on

GRIDX 3
-------
General Integration Accuracy     IntAcc      ... 4.338
Radial Grid Type                 RadialGrid  ... OptM3 with GC (2021)
Angular Grid (max. ang.)         AngularGrid ... 3 (Lebedev-194)
Angular grid pruning method      GridPruning ... 4 (adaptive)
Weight generation scheme         WeightScheme... Becke
Basis function cutoff            BFCut       ... 1.0000e-11
Integration weight cutoff        WCut        ... 1.0000e-14
Angular grids for H and He will be reduced by one unit
Partially contracted basis set               ... on
Rotationally invariant grid construction     ... off

Total number of grid points                  ...   102055
Total number of batches                      ...     1608
Average number of points per batch           ...       63
Average number of grid points per atom       ...     3402
UseSFitting                                  ... on

Time for X-Grid setup             =    3.219 sec

--------------
SCF ITERATIONS
--------------
ITER       Energy         Delta-E        Max-DP      RMS-DP      [F,P]     Damp
               ***  Starting incremental Fock matrix formation  ***
  0   -917.4502333831   0.000000000000 0.08925003  0.00129038  0.1371241 0.7000
  1   -917.5998365483  -0.149603165234 0.08021321  0.00109096  0.0811087 0.7000
                               ***Turning on DIIS***
  2   -917.6826699658  -0.082833417450 0.20509191  0.00262393  0.0420892 0.0000
  3   -917.8194668245  -0.136796858743 0.02995816  0.00058183  0.0349911 0.0000
  4   -917.8364664688  -0.016999644266 0.00678183  0.00014250  0.0070457 0.0000
                      *** Initiating the SOSCF procedure ***
                           *** Shutting down DIIS ***
                      *** Re-Reading the Fockian *** 
                      *** Removing any level shift *** 
ITER      Energy       Delta-E        Grad      Rot      Max-DP    RMS-DP
  5   -917.83693919  -0.0004727180  0.000955  0.000955  0.002828  0.000056
               *** Restarting incremental Fock matrix formation ***
  6   -917.83667930   0.0002598875  0.000626  0.002651  0.019901  0.000308
  7   -917.83667927   0.0000000302  0.001864  0.002615  0.010194  0.000159
  8   -917.83671014  -0.0000308703  0.000121  0.000408  0.009536  0.000146
  9   -917.83671079  -0.0000006498  0.000118  0.000331  0.002059  0.000032
 10   -917.83671136  -0.0000005726  0.000053  0.000181  0.002130  0.000032
 11   -917.83671139  -0.0000000301  0.000051  0.000067  0.000300  0.000005
 12   -917.83671145  -0.0000000583  0.000012  0.000048  0.000655  0.000010
 13   -917.83671149  -0.0000000382  0.000008  0.000017  0.000082  0.000002
 14   -917.83671150  -0.0000000088  0.000003  0.000012  0.000187  0.000003
                  ***Gradient check signals convergence***
              ***Rediagonalizing the Fockian in SOSCF/NRSCF***

               *****************************************************
               *                     SUCCESS                       *
               *           SCF CONVERGED AFTER  15 CYCLES          *
               *****************************************************

Old exchange energy                            =    -68.302429901 Eh
New exchange energy                            =    -68.302279344 Eh
Exchange energy change after final integration =      0.000150557 Eh
Total energy after final integration           =   -917.836560927 Eh
Final COS-X integration done in                =    67.338 sec

----------------
TOTAL SCF ENERGY
----------------

Total Energy       :         -917.83656093 Eh          -24975.60256 eV

Components:
Nuclear Repulsion  :         1727.08030242 Eh           46996.24427 eV
Electronic Energy  :        -2644.91686335 Eh          -71971.84683 eV
One Electron Energy:        -4668.32031117 Eh         -127031.45382 eV
Two Electron Energy:         2023.40344782 Eh           55059.60699 eV
Max COSX asymmetry :            0.00000397 Eh               0.00011 eV

Virial components:
Potential Energy   :        -1830.91527614 Eh          -49821.73755 eV
Kinetic Energy     :          913.07871521 Eh           24846.13499 eV
Virial Ratio       :            2.00521077


DFT components:
N(Alpha)           :       75.000129292964 electrons
N(Beta)            :       75.000129292964 electrons
N(Total)           :      150.000258585929 electrons
E(XC)              :      -63.834548240451 Eh       
DFET-embed. en.    :        0.000000000000 Eh       

---------------
SCF CONVERGENCE
---------------

  Last Energy change         ...    1.3472e-08  Tolerance :   1.0000e-08
  Last MAX-Density change    ...    1.6653e-15  Tolerance :   1.0000e-07
  Last RMS-Density change    ...    1.3537e-17  Tolerance :   5.0000e-09
  Last Orbital Gradient      ...    2.1435e-06  Tolerance :   1.0000e-05
  Last Orbital Rotation      ...    3.9950e-06  Tolerance :   1.0000e-05

             **** THE GBW FILE WAS UPDATED (five_six_two_one_ten_nine_loss.gbw) ****
             **** DENSITY five_six_two_one_ten_nine_loss.scfp WAS UPDATED ****
             **** ENERGY FILE WAS UPDATED (five_six_two_one_ten_nine_loss.en.tmp) ****
             **** THE GBW FILE WAS UPDATED (five_six_two_one_ten_nine_loss.gbw) ****
             **** DENSITY five_six_two_one_ten_nine_loss.scfp WAS UPDATED ****
----------------
ORBITAL ENERGIES
----------------

  NO   OCC          E(Eh)            E(eV) 
   0   2.0000     -10.598338      -288.3954 
   1   2.0000     -10.598303      -288.3945 
   2   2.0000     -10.597027      -288.3598 
   3   2.0000     -10.596477      -288.3448 
   4   2.0000     -10.595990      -288.3315 
   5   2.0000     -10.595585      -288.3205 
   6   2.0000     -10.592300      -288.2311 
   7   2.0000     -10.586726      -288.0795 
   8   2.0000     -10.586230      -288.0660 
   9   2.0000     -10.585865      -288.0560 
  10   2.0000     -10.585289      -288.0404 
  11   2.0000     -10.584983      -288.0320 
  12   2.0000     -10.583921      -288.0031 
  13   2.0000     -10.582819      -287.9731 
  14   2.0000     -10.567165      -287.5472 
  15   2.0000     -10.567121      -287.5460 
  16   2.0000     -10.566245      -287.5221 
  17   2.0000     -10.565934      -287.5137 
  18   2.0000     -10.563653      -287.4516 
  19   2.0000     -10.562483      -287.4198 
  20   2.0000     -10.559959      -287.3511 
  21   2.0000     -10.559229      -287.3312 
  22   2.0000     -10.557458      -287.2830 
  23   2.0000     -10.556716      -287.2628 
  24   2.0000      -1.041481       -28.3401 
  25   2.0000      -1.003821       -27.3154 
  26   2.0000      -1.001917       -27.2635 
  27   2.0000      -0.952436       -25.9171 
  28   2.0000      -0.949096       -25.8262 
  29   2.0000      -0.926752       -25.2182 
  30   2.0000      -0.896751       -24.4018 
  31   2.0000      -0.879706       -23.9380 
  32   2.0000      -0.858055       -23.3489 
  33   2.0000      -0.855635       -23.2830 
  34   2.0000      -0.825243       -22.4560 
  35   2.0000      -0.819407       -22.2972 
  36   2.0000      -0.746287       -20.3075 
  37   2.0000      -0.745156       -20.2767 
  38   2.0000      -0.722151       -19.6507 
  39   2.0000      -0.718107       -19.5407 
  40   2.0000      -0.711848       -19.3704 
  41   2.0000      -0.669743       -18.2246 
  42   2.0000      -0.626375       -17.0445 
  43   2.0000      -0.622348       -16.9350 
  44   2.0000      -0.619261       -16.8509 
  45   2.0000      -0.603534       -16.4230 
  46   2.0000      -0.594568       -16.1790 
  47   2.0000      -0.561354       -15.2752 
  48   2.0000      -0.556586       -15.1455 
  49   2.0000      -0.541001       -14.7214 
  50   2.0000      -0.536523       -14.5995 
  51   2.0000      -0.530659       -14.4400 
  52   2.0000      -0.520840       -14.1728 
  53   2.0000      -0.517759       -14.0889 
  54   2.0000      -0.513536       -13.9740 
  55   2.0000      -0.486525       -13.2390 
  56   2.0000      -0.484532       -13.1848 
  57   2.0000      -0.472517       -12.8578 
  58   2.0000      -0.470536       -12.8039 
  59   2.0000      -0.463784       -12.6202 
  60   2.0000      -0.454726       -12.3737 
  61   2.0000      -0.430928       -11.7261 
  62   2.0000      -0.425760       -11.5855 
  63   2.0000      -0.425450       -11.5771 
  64   2.0000      -0.422725       -11.5029 
  65   2.0000      -0.402795       -10.9606 
  66   2.0000      -0.355434        -9.6719 
  67   2.0000      -0.346856        -9.4384 
  68   2.0000      -0.340276        -9.2594 
  69   2.0000      -0.337082        -9.1725 
  70   2.0000      -0.328571        -8.9409 
  71   2.0000      -0.327988        -8.9250 
  72   2.0000      -0.326984        -8.8977 
  73   2.0000      -0.274095        -7.4585 
  74   2.0000      -0.269032        -7.3207 
  75   0.0000      -0.092442        -2.5155 
  76   0.0000      -0.056604        -1.5403 
  77   0.0000      -0.051410        -1.3989 
  78   0.0000      -0.047217        -1.2848 
  79   0.0000      -0.046214        -1.2575 
  80   0.0000      -0.005977        -0.1626 
  81   0.0000      -0.000912        -0.0248 
  82   0.0000       0.006014         0.1636 
  83   0.0000       0.046245         1.2584 
  84   0.0000       0.088027         2.3953 
  85   0.0000       0.091742         2.4964 
  86   0.0000       0.093537         2.5453 
  87   0.0000       0.095354         2.5947 
  88   0.0000       0.113580         3.0907 
  89   0.0000       0.118112         3.2140 
  90   0.0000       0.120446         3.2775 
  91   0.0000       0.123209         3.3527 
  92   0.0000       0.125143         3.4053 
  93   0.0000       0.129830         3.5328 
  94   0.0000       0.134054         3.6478 
  95   0.0000       0.134357         3.6560 
  96   0.0000       0.166770         4.5380 
  97   0.0000       0.173932         4.7329 
  98   0.0000       0.175272         4.7694 
  99   0.0000       0.185534         5.0486 
 100   0.0000       0.187659         5.1065 
 101   0.0000       0.189683         5.1615 
 102   0.0000       0.195246         5.3129 
 103   0.0000       0.203187         5.5290 
 104   0.0000       0.204705         5.5703 
 105   0.0000       0.216440         5.8896 
 106   0.0000       0.219390         5.9699 
 107   0.0000       0.224265         6.1026 
 108   0.0000       0.226598         6.1660 
 109   0.0000       0.226721         6.1694 
 110   0.0000       0.227954         6.2030 
 111   0.0000       0.244993         6.6666 
 112   0.0000       0.248792         6.7700 
 113   0.0000       0.253808         6.9065 
 114   0.0000       0.256903         6.9907 
 115   0.0000       0.262115         7.1325 
 116   0.0000       0.262803         7.1512 
 117   0.0000       0.269483         7.3330 
 118   0.0000       0.272536         7.4161 
 119   0.0000       0.276697         7.5293 
 120   0.0000       0.279568         7.6074 
 121   0.0000       0.280384         7.6296 
 122   0.0000       0.289008         7.8643 
 123   0.0000       0.291209         7.9242 
 124   0.0000       0.298992         8.1360 
 125   0.0000       0.301696         8.2096 
 126   0.0000       0.310879         8.4594 
 127   0.0000       0.312870         8.5136 
 128   0.0000       0.313793         8.5388 
 129   0.0000       0.316493         8.6122 
 130   0.0000       0.317467         8.6387 
 131   0.0000       0.319568         8.6959 
 132   0.0000       0.322522         8.7763 
 133   0.0000       0.325365         8.8536 
 134   0.0000       0.339916         9.2496 
 135   0.0000       0.346454         9.4275 
 136   0.0000       0.349661         9.5148 
 137   0.0000       0.352875         9.6022 
 138   0.0000       0.358233         9.7480 
 139   0.0000       0.359673         9.7872 
 140   0.0000       0.367038         9.9876 
 141   0.0000       0.372741        10.1428 
 142   0.0000       0.375466        10.2170 
 143   0.0000       0.377546        10.2735 
 144   0.0000       0.379031        10.3140 
 145   0.0000       0.379554        10.3282 
 146   0.0000       0.380506        10.3541 
 147   0.0000       0.383182        10.4269 
 148   0.0000       0.384591        10.4653 
 149   0.0000       0.392287        10.6747 
 150   0.0000       0.395332        10.7575 
 151   0.0000       0.404285        11.0011 
 152   0.0000       0.413958        11.2644 
 153   0.0000       0.418118        11.3776 
 154   0.0000       0.418162        11.3788 
 155   0.0000       0.424971        11.5641 
 156   0.0000       0.429484        11.6869 
 157   0.0000       0.448436        12.2026 
 158   0.0000       0.450709        12.2644 
 159   0.0000       0.451478        12.2853 
 160   0.0000       0.459411        12.5012 
 161   0.0000       0.460425        12.5288 
 162   0.0000       0.466351        12.6900 
 163   0.0000       0.469680        12.7806 
 164   0.0000       0.469834        12.7848 
 165   0.0000       0.480073        13.0634 
 166   0.0000       0.489643        13.3239 
 167   0.0000       0.495235        13.4760 
 168   0.0000       0.500464        13.6183 
 169   0.0000       0.505393        13.7525 
 170   0.0000       0.508239        13.8299 
 171   0.0000       0.508320        13.8321 
 172   0.0000       0.508628        13.8405 
 173   0.0000       0.524363        14.2686 
 174   0.0000       0.533343        14.5130 
 175   0.0000       0.540748        14.7145 
 176   0.0000       0.542187        14.7537 
 177   0.0000       0.544138        14.8067 
 178   0.0000       0.545151        14.8343 
 179   0.0000       0.551745        15.0137 
 180   0.0000       0.557215        15.1626 
 181   0.0000       0.559787        15.2326 
 182   0.0000       0.562074        15.2948 
 183   0.0000       0.566158        15.4059 
 184   0.0000       0.582455        15.8494 
 185   0.0000       0.586150        15.9499 
 186   0.0000       0.594038        16.1646 
 187   0.0000       0.600446        16.3390 
 188   0.0000       0.626737        17.0544 
 189   0.0000       0.626955        17.0603 
 190   0.0000       0.628478        17.1018 
 191   0.0000       0.628943        17.1144 
 192   0.0000       0.632045        17.1988 
 193   0.0000       0.639385        17.3985 
 194   0.0000       0.642267        17.4770 
 195   0.0000       0.645457        17.5638 
 196   0.0000       0.652082        17.7441 
 197   0.0000       0.656749        17.8710 
 198   0.0000       0.656769        17.8716 
 199   0.0000       0.664332        18.0774 
 200   0.0000       0.675707        18.3869 
 201   0.0000       0.677727        18.4419 
 202   0.0000       0.679747        18.4969 
 203   0.0000       0.690502        18.7895 
 204   0.0000       0.694998        18.9118 
 205   0.0000       0.698977        19.0201 
 206   0.0000       0.707695        19.2574 
 207   0.0000       0.717855        19.5338 
 208   0.0000       0.720633        19.6094 
 209   0.0000       0.720934        19.6176 
 210   0.0000       0.723410        19.6850 
 211   0.0000       0.726848        19.7785 
 212   0.0000       0.743051        20.2195 
 213   0.0000       0.753035        20.4911 
 214   0.0000       0.761610        20.7245 
 215   0.0000       0.763802        20.7841 
 216   0.0000       0.766190        20.8491 
 217   0.0000       0.769062        20.9273 
 218   0.0000       0.780650        21.2426 
 219   0.0000       0.784408        21.3448 
 220   0.0000       0.785641        21.3784 
 221   0.0000       0.788030        21.4434 
 222   0.0000       0.791265        21.5314 
 223   0.0000       0.792394        21.5621 
 224   0.0000       0.794114        21.6089 
 225   0.0000       0.797293        21.6955 
 226   0.0000       0.811362        22.0783 
 227   0.0000       0.814062        22.1518 
 228   0.0000       0.817756        22.2523 
 229   0.0000       0.829406        22.5693 
 230   0.0000       0.839368        22.8404 
 231   0.0000       0.843365        22.9491 
 232   0.0000       0.849699        23.1215 
 233   0.0000       0.852386        23.1946 
 234   0.0000       0.855656        23.2836 
 235   0.0000       0.870049        23.6752 
 236   0.0000       0.872985        23.7551 
 237   0.0000       0.876074        23.8392 
 238   0.0000       0.879894        23.9431 
 239   0.0000       0.882559        24.0157 
 240   0.0000       0.895999        24.3814 
 241   0.0000       0.898244        24.4425 
 242   0.0000       0.901026        24.5182 
 243   0.0000       0.901517        24.5315 
 244   0.0000       0.908177        24.7127 
 245   0.0000       0.911855        24.8128 
 246   0.0000       0.918779        25.0013 
 247   0.0000       0.938153        25.5284 
 248   0.0000       0.945016        25.7152 
 249   0.0000       0.948526        25.8107 
 250   0.0000       0.950979        25.8774 
 251   0.0000       0.953380        25.9428 
 252   0.0000       0.966664        26.3043 
 253   0.0000       0.974977        26.5305 
 254   0.0000       0.994698        27.0671 
 255   0.0000       1.000800        27.2331 
 256   0.0000       1.002189        27.2709 
 257   0.0000       1.016803        27.6686 
 258   0.0000       1.019410        27.7396 
 259   0.0000       1.026157        27.9231 
 260   0.0000       1.054561        28.6961 
 261   0.0000       1.059899        28.8413 
 262   0.0000       1.060774        28.8651 
 263   0.0000       1.063738        28.9458 
 264   0.0000       1.072999        29.1978 
 265   0.0000       1.073039        29.1989 
 266   0.0000       1.082548        29.4576 
 267   0.0000       1.088088        29.6084 
 268   0.0000       1.091001        29.6877 
 269   0.0000       1.097173        29.8556 
 270   0.0000       1.121121        30.5072 
 271   0.0000       1.146105        31.1871 
 272   0.0000       1.149089        31.2683 
 273   0.0000       1.152815        31.3697 
 274   0.0000       1.155509        31.4430 
 275   0.0000       1.157817        31.5058 
 276   0.0000       1.164349        31.6835 
 277   0.0000       1.205423        32.8012 
 278   0.0000       1.209078        32.9007 
 279   0.0000       1.212548        32.9951 
 280   0.0000       1.222306        33.2606 
 281   0.0000       1.227169        33.3930 
 282   0.0000       1.231421        33.5087 
 283   0.0000       1.234479        33.5919 
 284   0.0000       1.234607        33.5954 
 285   0.0000       1.238694        33.7066 
 286   0.0000       1.243538        33.8384 
 287   0.0000       1.245968        33.9045 
 288   0.0000       1.253061        34.0975 
 289   0.0000       1.253804        34.1177 
 290   0.0000       1.256028        34.1783 
 291   0.0000       1.285002        34.9667 
 292   0.0000       1.291805        35.1518 
 293   0.0000       1.298822        35.3428 
 294   0.0000       1.304598        35.4999 
 295   0.0000       1.308835        35.6152 
 296   0.0000       1.312376        35.7116 
 297   0.0000       1.317923        35.8625 
 298   0.0000       1.318788        35.8860 
 299   0.0000       1.329760        36.1846 
 300   0.0000       1.334845        36.3230 
 301   0.0000       1.338756        36.4294 
 302   0.0000       1.349103        36.7110 
 303   0.0000       1.364979        37.1430 
 304   0.0000       1.369456        37.2648 
 305   0.0000       1.371964        37.3330 
 306   0.0000       1.377140        37.4739 
 307   0.0000       1.385802        37.7096 
 308   0.0000       1.390699        37.8428 
 309   0.0000       1.400731        38.1158 
 310   0.0000       1.418475        38.5987 
 311   0.0000       1.421707        38.6866 
 312   0.0000       1.425669        38.7944 
 313   0.0000       1.426004        38.8036 
 314   0.0000       1.429089        38.8875 
 315   0.0000       1.431240        38.9460 
 316   0.0000       1.440877        39.2083 
 317   0.0000       1.444261        39.3003 
 318   0.0000       1.446787        39.3691 
 319   0.0000       1.479453        40.2580 
 320   0.0000       1.487099        40.4660 
 321   0.0000       1.502746        40.8918 
 322   0.0000       1.514612        41.2147 
 323   0.0000       1.518835        41.3296 
 324   0.0000       1.531616        41.6774 
 325   0.0000       1.532177        41.6926 
 326   0.0000       1.532744        41.7081 
 327   0.0000       1.533123        41.7184 
 328   0.0000       1.537746        41.8442 
 329   0.0000       1.541930        41.9581 
 330   0.0000       1.560863        42.4732 
 331   0.0000       1.574364        42.8406 
 332   0.0000       1.578162        42.9440 
 333   0.0000       1.582720        43.0680 
 334   0.0000       1.585827        43.1526 
 335   0.0000       1.585862        43.1535 
 336   0.0000       1.587626        43.2015 
 337   0.0000       1.607685        43.7473 
 338   0.0000       1.608652        43.7736 
 339   0.0000       1.616850        43.9967 
 340   0.0000       1.624613        44.2080 
 341   0.0000       1.635671        44.5089 
 342   0.0000       1.641236        44.6603 
 343   0.0000       1.645440        44.7747 
 344   0.0000       1.648885        44.8684 
 345   0.0000       1.654785        45.0290 
 346   0.0000       1.656262        45.0692 
 347   0.0000       1.658129        45.1200 
 348   0.0000       1.665396        45.3177 
 349   0.0000       1.666981        45.3609 
 350   0.0000       1.687903        45.9302 
 351   0.0000       1.698503        46.2186 
 352   0.0000       1.710333        46.5405 
 353   0.0000       1.712402        46.5968 
 354   0.0000       1.713744        46.6333 
 355   0.0000       1.725761        46.9604 
 356   0.0000       1.733310        47.1658 
 357   0.0000       1.736881        47.2629 
 358   0.0000       1.751347        47.6566 
 359   0.0000       1.756902        47.8077 
 360   0.0000       1.758747        47.8579 
 361   0.0000       1.771013        48.1917 
 362   0.0000       1.782218        48.4966 
 363   0.0000       1.784358        48.5548 
 364   0.0000       1.793057        48.7916 
 365   0.0000       1.804239        49.0958 
 366   0.0000       1.829435        49.7814 
 367   0.0000       1.841746        50.1165 
 368   0.0000       1.849154        50.3180 
 369   0.0000       1.853347        50.4321 
 370   0.0000       1.886799        51.3424 
 371   0.0000       1.892499        51.4975 
 372   0.0000       1.896762        51.6135 
 373   0.0000       1.903141        51.7871 
 374   0.0000       1.906001        51.8649 
 375   0.0000       1.912071        52.0301 
 376   0.0000       1.914307        52.0910 
 377   0.0000       1.942116        52.8477 
 378   0.0000       1.966018        53.4981 
 379   0.0000       1.968820        53.5743 
 380   0.0000       1.977738        53.8170 
 381   0.0000       1.979808        53.8733 
 382   0.0000       1.995024        54.2874 
 383   0.0000       1.999204        54.4011 
 384   0.0000       2.010309        54.7033 
 385   0.0000       2.019254        54.9467 
 386   0.0000       2.021600        55.0105 
 387   0.0000       2.030041        55.2402 
 388   0.0000       2.036781        55.4236 
 389   0.0000       2.047151        55.7058 
 390   0.0000       2.054650        55.9099 
 391   0.0000       2.063820        56.1594 
 392   0.0000       2.078663        56.5633 
 393   0.0000       2.114080        57.5270 
 394   0.0000       2.125907        57.8489 
 395   0.0000       2.126286        57.8592 
 396   0.0000       2.130868        57.9839 
 397   0.0000       2.151449        58.5439 
 398   0.0000       2.153302        58.5943 
 399   0.0000       2.154332        58.6223 
 400   0.0000       2.165053        58.9141 
 401   0.0000       2.184213        59.4355 
 402   0.0000       2.196481        59.7693 
 403   0.0000       2.221812        60.4586 
 404   0.0000       2.224145        60.5221 
 405   0.0000       2.227333        60.6088 
 406   0.0000       2.234541        60.8050 
 407   0.0000       2.234572        60.8058 
 408   0.0000       2.237706        60.8911 
 409   0.0000       2.238229        60.9053 
 410   0.0000       2.246400        61.1276 
 411   0.0000       2.254642        61.3519 
 412   0.0000       2.259928        61.4958 
 413   0.0000       2.280377        62.0522 
 414   0.0000       2.288252        62.2665 
 415   0.0000       2.290146        62.3180 
 416   0.0000       2.292057        62.3701 
 417   0.0000       2.314022        62.9677 
 418   0.0000       2.321402        63.1686 
 419   0.0000       2.333945        63.5099 
 420   0.0000       2.339387        63.6580 
 421   0.0000       2.342695        63.7480 
 422   0.0000       2.352305        64.0095 
 423   0.0000       2.363703        64.3196 
 424   0.0000       2.387260        64.9606 
 425   0.0000       2.391689        65.0812 
 426   0.0000       2.410855        65.6027 
 427   0.0000       2.421638        65.8961 
 428   0.0000       2.442044        66.4514 
 429   0.0000       2.442261        66.4573 
 430   0.0000       2.443645        66.4950 
 431   0.0000       2.460906        66.9647 
 432   0.0000       2.465925        67.1012 
 433   0.0000       2.467670        67.1487 
 434   0.0000       2.490936        67.7818 
 435   0.0000       2.512074        68.3570 
 436   0.0000       2.520592        68.5888 
 437   0.0000       2.534081        68.9558 
 438   0.0000       2.563002        69.7428 
 439   0.0000       2.577497        70.1373 
 440   0.0000       2.580651        70.2231 
 441   0.0000       2.599326        70.7312 
 442   0.0000       2.599941        70.7480 
 443   0.0000       2.615478        71.1708 
 444   0.0000       2.615590        71.1738 
 445   0.0000       2.618584        71.2553 
 446   0.0000       2.620539        71.3085 
 447   0.0000       2.630888        71.5901 
 448   0.0000       2.636407        71.7403 
 449   0.0000       2.642580        71.9083 
 450   0.0000       2.644416        71.9582 
 451   0.0000       2.651688        72.1561 
 452   0.0000       2.656024        72.2741 
 453   0.0000       2.657936        72.3261 
 454   0.0000       2.687944        73.1427 
 455   0.0000       2.694973        73.3339 
 456   0.0000       2.696268        73.3692 
 457   0.0000       2.701334        73.5070 
 458   0.0000       2.702470        73.5380 
 459   0.0000       2.708960        73.7145 
 460   0.0000       2.718705        73.9797 
 461   0.0000       2.723889        74.1208 
 462   0.0000       2.730539        74.3017 
 463   0.0000       2.736245        74.4570 
 464   0.0000       2.755057        74.9689 
 465   0.0000       2.761708        75.1499 
 466   0.0000       2.763486        75.1983 
[...]
|  sn= 3 | S(rot)=       0.38918559 Eh    244.22 kcal/mol|
|  sn= 4 | S(rot)=       0.38371940 Eh    240.79 kcal/mol|
|  sn= 5 | S(rot)=       0.37947950 Eh    238.13 kcal/mol|
|  sn= 6 | S(rot)=       0.37601524 Eh    235.95 kcal/mol|
|  sn= 7 | S(rot)=       0.37308626 Eh    234.11 kcal/mol|
|  sn= 8 | S(rot)=       0.37054906 Eh    232.52 kcal/mol|
|  sn= 9 | S(rot)=       0.36831109 Eh    231.12 kcal/mol|
|  sn=10 | S(rot)=       0.36630915 Eh    229.86 kcal/mol|
|  sn=11 | S(rot)=       0.36449818 Eh    228.73 kcal/mol|
|  sn=12 | S(rot)=       0.36284490 Eh    227.69 kcal/mol|
 --------------------------------------------------------


-------------------
GIBBS FREE ENERGY
-------------------

The Gibbs free energy is G = H - T*S

Total enthalpy                    ...   -916.17774475 Eh 
Total entropy correction          ...     -5.05670708 Eh  -3173.12 kcal/mol
-----------------------------------------------------------------------
Final Gibbs free energy         ...   -921.23445183 Eh

For completeness - the Gibbs free energy minus the electronic energy
G-E(el)                           ...     -3.37110218 Eh  -2115.39 kcal/mol


The first frequency considered to be a vibration is 6
The total number of vibrations considered is 84


--------------------------
THERMOCHEMISTRY AT 8000.00K
--------------------------

Temperature         ... 8000.00 K
Pressure            ... 1.00 atm
Total Mass          ... 294.31 AMU

Throughout the following assumptions are being made:
  (1) The electronic state is orbitally nondegenerate
  (2) There are no thermally accessible electronically excited states
  (3) Hindered rotations indicated by low frequency modes are not
      treated as such but are treated as vibrations and this may
      cause some error
  (4) All equations used are the standard statistical mechanics
      equations for an ideal gas
  (5) All vibrations are strictly harmonic

freq.      85.55  E(vib)   ...      15.78 
freq.      86.35  E(vib)   ...      15.77 
freq.     131.11  E(vib)   ...      15.71 
freq.     181.64  E(vib)   ...      15.64 
freq.     227.00  E(vib)   ...      15.58 
freq.     295.83  E(vib)   ...      15.48 
freq.     297.04  E(vib)   ...      15.48 
freq.     348.77  E(vib)   ...      15.40 
freq.     349.99  E(vib)   ...      15.40 
freq.     352.50  E(vib)   ...      15.40 
freq.     353.03  E(vib)   ...      15.40 
freq.     402.09  E(vib)   ...      15.33 
freq.     402.67  E(vib)   ...      15.33 
freq.     407.84  E(vib)   ...      15.32 
freq.     451.94  E(vib)   ...      15.26 
freq.     452.64  E(vib)   ...      15.26 
freq.     462.40  E(vib)   ...      15.25 
freq.     463.26  E(vib)   ...      15.24 
freq.     470.54  E(vib)   ...      15.23 
freq.     487.11  E(vib)   ...      15.21 
freq.     502.10  E(vib)   ...      15.19 
freq.     522.16  E(vib)   ...      15.16 
freq.     524.50  E(vib)   ...      15.16 
freq.     525.10  E(vib)   ...      15.16 
freq.     525.68  E(vib)   ...      15.16 
freq.     591.68  E(vib)   ...      15.07 
freq.     603.60  E(vib)   ...      15.05 
freq.     619.01  E(vib)   ...      15.03 
freq.     685.05  E(vib)   ...      14.94 
freq.     685.56  E(vib)   ...      14.94 
freq.     686.71  E(vib)   ...      14.94 
freq.     716.10  E(vib)   ...      14.90 
freq.     716.34  E(vib)   ...      14.90 
freq.     819.77  E(vib)   ...      14.75 
freq.     820.11  E(vib)   ...      14.75 
freq.     836.73  E(vib)   ...      14.73 
freq.     837.01  E(vib)   ...      14.73 
freq.     852.68  E(vib)   ...      14.71 
freq.     854.98  E(vib)   ...      14.71 
freq.     858.31  E(vib)   ...      14.70 
freq.     859.82  E(vib)   ...      14.70 
freq.     897.74  E(vib)   ...      14.65 
freq.     986.21  E(vib)   ...      14.53 
freq.     986.66  E(vib)   ...      14.53 
freq.     995.74  E(vib)   ...      14.52 
freq.     997.10  E(vib)   ...      14.52 
freq.     999.56  E(vib)   ...      14.51 
freq.    1033.20  E(vib)   ...      14.47 
freq.    1133.75  E(vib)   ...      14.33 
freq.    1134.64  E(vib)   ...      14.33 
freq.    1148.94  E(vib)   ...      14.31 
freq.    1184.41  E(vib)   ...      14.26 
freq.    1232.75  E(vib)   ...      14.20 
freq.    1248.74  E(vib)   ...      14.18 
freq.    1248.95  E(vib)   ...      14.18 
freq.    1253.72  E(vib)   ...      14.17 
freq.    1254.08  E(vib)   ...      14.17 
freq.    1255.62  E(vib)   ...      14.17 
freq.    1331.16  E(vib)   ...      14.07 
freq.    1331.77  E(vib)   ...      14.07 
freq.    1349.07  E(vib)   ...      14.05 
freq.    1387.02  E(vib)   ...      14.00 
freq.    1387.84  E(vib)   ...      14.00 
freq.    1416.96  E(vib)   ...      13.96 
freq.    1417.71  E(vib)   ...      13.96 
freq.    1423.27  E(vib)   ...      13.95 
freq.    1466.63  E(vib)   ...      13.89 
freq.    1477.62  E(vib)   ...      13.88 
freq.    1478.68  E(vib)   ...      13.88 
freq.    1576.03  E(vib)   ...      13.75 
freq.    1609.52  E(vib)   ...      13.71 
freq.    1609.99  E(vib)   ...      13.71 
freq.    1625.64  E(vib)   ...      13.69 
freq.    1657.71  E(vib)   ...      13.65 
freq.    1658.31  E(vib)   ...      13.65 
freq.    2125.49  E(vib)   ...      13.05 
freq.    2155.46  E(vib)   ...      13.02 
freq.    2155.94  E(vib)   ...      13.01 
freq.    3231.24  E(vib)   ...      11.72 
freq.    3231.54  E(vib)   ...      11.72 
freq.    3231.76  E(vib)   ...      11.72 
freq.    3245.72  E(vib)   ...      11.71 
freq.    3245.80  E(vib)   ...      11.71 
freq.    3246.56  E(vib)   ...      11.71 

------------
INNER ENERGY
------------

The inner energy is: U= E(el) + E(ZPE) + E(vib) + E(rot) + E(trans)
    E(el)   - is the total energy from the electronic structure calculation
              = E(kin-el) + E(nuc-el) + E(el-el) + E(nuc-nuc)
    E(ZPE)  - the the zero temperature vibrational energy from the frequency calculation
    E(vib)  - the the finite temperature correction to E(ZPE) due to population
              of excited vibrational states
    E(rot)  - is the rotational thermal energy
    E(trans)- is the translational thermal energy

Summary of contributions to the inner energy U:
Electronic energy                ...   -917.86334966 Eh
Zero point energy                ...      0.20826677 Eh     130.69 kcal/mol
Thermal vibrational correction   ...      1.93002425 Eh    1211.11 kcal/mol
Thermal rotational correction    ...      0.03800158 Eh      23.85 kcal/mol
Thermal translational correction ...      0.03800158 Eh      23.85 kcal/mol
-----------------------------------------------------------------------
Total thermal energy                   -915.64905547 Eh


Summary of corrections to the electronic energy:
(perhaps to be used in another calculation)
Total thermal correction                  2.00602742 Eh    1258.80 kcal/mol
Non-thermal (ZPE) correction              0.20826677 Eh     130.69 kcal/mol
-----------------------------------------------------------------------
Total correction                          2.21429418 Eh    1389.49 kcal/mol


--------
ENTHALPY
--------

The enthalpy is H = U + kB*T
                kB is Boltzmann's constant
Total free energy                 ...   -915.64905547 Eh 
Thermal Enthalpy correction       ...      0.02533514 Eh      15.90 kcal/mol
-----------------------------------------------------------------------
Total Enthalpy                    ...   -915.62372033 Eh


Note: Rotational entropy computed according to Herzberg 
Infrared and Raman Spectra, Chapter V,1, Van Nostrand Reinhold, 1945 
Point Group:  Cs, Symmetry Number:   1  
Rotational constants in cm-1:     0.011808     0.011805     0.005903 

Vibrational entropy computed according to the QRRHO of S. Grimme
Chem.Eur.J. 2012 18 9955


-------
ENTROPY
-------

The entropy contributions are T*S = T*(S(el)+S(vib)+S(rot)+S(trans))
     S(el)   - electronic entropy
     S(vib)  - vibrational entropy
     S(rot)  - rotational entropy
     S(trans)- translational entropy
The entropies will be listed as multiplied by the temperature to get
units of energy

Electronic entropy                ...      0.00000000 Eh      0.00 kcal/mol
Vibrational entropy               ...      6.05992678 Eh   3802.65 kcal/mol
Rotational entropy                ...      0.55767916 Eh    349.95 kcal/mol
Translational entropy             ...      0.75572723 Eh    474.22 kcal/mol
-----------------------------------------------------------------------
Final entropy term                ...      7.37333318 Eh   4626.83 kcal/mol

In case the symmetry of your molecule has not been determined correctly
or in case you have a reason to use a different symmetry number we print 
out the resulting rotational entropy values for sn=1,12 :
 --------------------------------------------------------
|  sn= 1 | S(rot)=       0.55767916 Eh    349.95 kcal/mol|
|  sn= 2 | S(rot)=       0.54011870 Eh    338.93 kcal/mol|
|  sn= 3 | S(rot)=       0.52984649 Eh    332.48 kcal/mol|
|  sn= 4 | S(rot)=       0.52255824 Eh    327.91 kcal/mol|
|  sn= 5 | S(rot)=       0.51690504 Eh    324.36 kcal/mol|
|  sn= 6 | S(rot)=       0.51228603 Eh    321.46 kcal/mol|
|  sn= 7 | S(rot)=       0.50838072 Eh    319.01 kcal/mol|
|  sn= 8 | S(rot)=       0.50499778 Eh    316.89 kcal/mol|
|  sn= 9 | S(rot)=       0.50201382 Eh    315.02 kcal/mol|
|  sn=10 | S(rot)=       0.49934458 Eh    313.34 kcal/mol|
|  sn=11 | S(rot)=       0.49692995 Eh    311.83 kcal/mol|
|  sn=12 | S(rot)=       0.49472557 Eh    310.44 kcal/mol|
 --------------------------------------------------------


-------------------
GIBBS FREE ENERGY
-------------------

The Gibbs free energy is G = H - T*S

Total enthalpy                    ...   -915.62372033 Eh 
Total entropy correction          ...     -7.37333318 Eh  -4626.83 kcal/mol
-----------------------------------------------------------------------
Final Gibbs free energy         ...   -922.99705351 Eh

For completeness - the Gibbs free energy minus the electronic energy
G-E(el)                           ...     -5.13370385 Eh  -3221.44 kcal/mol


The first frequency considered to be a vibration is 6
The total number of vibrations considered is 84


--------------------------
THERMOCHEMISTRY AT 10000.00K
--------------------------

Temperature         ... 10000.00 K
Pressure            ... 1.00 atm
Total Mass          ... 294.31 AMU

Throughout the following assumptions are being made:
  (1) The electronic state is orbitally nondegenerate
  (2) There are no thermally accessible electronically excited states
  (3) Hindered rotations indicated by low frequency modes are not
      treated as such but are treated as vibrations and this may
      cause some error
  (4) All equations used are the standard statistical mechanics
      equations for an ideal gas
  (5) All vibrations are strictly harmonic

freq.      85.55  E(vib)   ...      19.75 
freq.      86.35  E(vib)   ...      19.75 
freq.     131.11  E(vib)   ...      19.69 
freq.     181.64  E(vib)   ...      19.61 
freq.     227.00  E(vib)   ...      19.55 
freq.     295.83  E(vib)   ...      19.45 
freq.     297.04  E(vib)   ...      19.45 
freq.     348.77  E(vib)   ...      19.38 
freq.     349.99  E(vib)   ...      19.38 
freq.     352.50  E(vib)   ...      19.37 
freq.     353.03  E(vib)   ...      19.37 
freq.     402.09  E(vib)   ...      19.30 
freq.     402.67  E(vib)   ...      19.30 
freq.     407.84  E(vib)   ...      19.30 
freq.     451.94  E(vib)   ...      19.23 
freq.     452.64  E(vib)   ...      19.23 
freq.     462.40  E(vib)   ...      19.22 
freq.     463.26  E(vib)   ...      19.22 
freq.     470.54  E(vib)   ...      19.21 
freq.     487.11  E(vib)   ...      19.18 
freq.     502.10  E(vib)   ...      19.16 
freq.     522.16  E(vib)   ...      19.14 
freq.     524.50  E(vib)   ...      19.13 
freq.     525.10  E(vib)   ...      19.13 
freq.     525.68  E(vib)   ...      19.13 
freq.     591.68  E(vib)   ...      19.04 
freq.     603.60  E(vib)   ...      19.02 
freq.     619.01  E(vib)   ...      19.00 
freq.     685.05  E(vib)   ...      18.91 
freq.     685.56  E(vib)   ...      18.91 
freq.     686.71  E(vib)   ...      18.91 
freq.     716.10  E(vib)   ...      18.87 
freq.     716.34  E(vib)   ...      18.87 
freq.     819.77  E(vib)   ...      18.72 
freq.     820.11  E(vib)   ...      18.72 
freq.     836.73  E(vib)   ...      18.70 
freq.     837.01  E(vib)   ...      18.70 
freq.     852.68  E(vib)   ...      18.68 
freq.     854.98  E(vib)   ...      18.68 
freq.     858.31  E(vib)   ...      18.67 
freq.     859.82  E(vib)   ...      18.67 
freq.     897.74  E(vib)   ...      18.62 
freq.     986.21  E(vib)   ...      18.50 
freq.     986.66  E(vib)   ...      18.50 
freq.     995.74  E(vib)   ...      18.48 
freq.     997.10  E(vib)   ...      18.48 
freq.     999.56  E(vib)   ...      18.48 
freq.    1033.20  E(vib)   ...      18.43 
freq.    1133.75  E(vib)   ...      18.30 
freq.    1134.64  E(vib)   ...      18.29 
freq.    1148.94  E(vib)   ...      18.28 
freq.    1184.41  E(vib)   ...      18.23 
freq.    1232.75  E(vib)   ...      18.16 
freq.    1248.74  E(vib)   ...      18.14 
freq.    1248.95  E(vib)   ...      18.14 
freq.    1253.72  E(vib)   ...      18.13 
freq.    1254.08  E(vib)   ...      18.13 
freq.    1255.62  E(vib)   ...      18.13 
freq.    1331.16  E(vib)   ...      18.03 
freq.    1331.77  E(vib)   ...      18.03 
freq.    1349.07  E(vib)   ...      18.01 
freq.    1387.02  E(vib)   ...      17.96 
freq.    1387.84  E(vib)   ...      17.95 
freq.    1416.96  E(vib)   ...      17.92 
freq.    1417.71  E(vib)   ...      17.91 
freq.    1423.27  E(vib)   ...      17.91 
freq.    1466.63  E(vib)   ...      17.85 
freq.    1477.62  E(vib)   ...      17.83 
freq.    1478.68  E(vib)   ...      17.83 
freq.    1576.03  E(vib)   ...      17.70 
freq.    1609.52  E(vib)   ...      17.66 
freq.    1609.99  E(vib)   ...      17.66 
freq.    1625.64  E(vib)   ...      17.64 
freq.    1657.71  E(vib)   ...      17.60 
freq.    1658.31  E(vib)   ...      17.60 
freq.    2125.49  E(vib)   ...      16.99 
freq.    2155.46  E(vib)   ...      16.95 
freq.    2155.94  E(vib)   ...      16.95 
freq.    3231.24  E(vib)   ...      15.61 
freq.    3231.54  E(vib)   ...      15.61 
freq.    3231.76  E(vib)   ...      15.61 
freq.    3245.72  E(vib)   ...      15.59 
freq.    3245.80  E(vib)   ...      15.59 
freq.    3246.56  E(vib)   ...      15.59 

------------
INNER ENERGY
------------

The inner energy is: U= E(el) + E(ZPE) + E(vib) + E(rot) + E(trans)
    E(el)   - is the total energy from the electronic structure calculation
              = E(kin-el) + E(nuc-el) + E(el-el) + E(nuc-nuc)
    E(ZPE)  - the the zero temperature vibrational energy from the frequency calculation
    E(vib)  - the the finite temperature correction to E(ZPE) due to population
              of excited vibrational states
    E(rot)  - is the rotational thermal energy
    E(trans)- is the translational thermal energy

Summary of contributions to the inner energy U:
Electronic energy                ...   -917.86334966 Eh
Zero point energy                ...      0.20826677 Eh     130.69 kcal/mol
Thermal vibrational correction   ...      2.46004323 Eh    1543.70 kcal/mol
Thermal rotational correction    ...      0.04750198 Eh      29.81 kcal/mol
Thermal translational correction ...      0.04750198 Eh      29.81 kcal/mol
-----------------------------------------------------------------------
Total thermal energy                   -915.10003570 Eh


Summary of corrections to the electronic energy:
(perhaps to be used in another calculation)
Total thermal correction                  2.55504718 Eh    1603.31 kcal/mol
Non-thermal (ZPE) correction              0.20826677 Eh     130.69 kcal/mol
-----------------------------------------------------------------------
Total correction                          2.76331395 Eh    1734.00 kcal/mol


--------
ENTHALPY
--------

The enthalpy is H = U + kB*T
                kB is Boltzmann's constant
Total free energy                 ...   -915.10003570 Eh 
Thermal Enthalpy correction       ...      0.03166893 Eh      19.87 kcal/mol
-----------------------------------------------------------------------
Total Enthalpy                    ...   -915.06836678 Eh


Note: Rotational entropy computed according to Herzberg 
Infrared and Raman Spectra, Chapter V,1, Van Nostrand Reinhold, 1945 
Point Group:  Cs, Symmetry Number:   1  
Rotational constants in cm-1:     0.011808     0.011805     0.005903 

Vibrational entropy computed according to the QRRHO of S. Grimme
Chem.Eur.J. 2012 18 9955


-------
ENTROPY
-------

The entropy contributions are T*S = T*(S(el)+S(vib)+S(rot)+S(trans))
     S(el)   - electronic entropy
     S(vib)  - vibrational entropy
     S(rot)  - rotational entropy
     S(trans)- translational entropy
The entropies will be listed as multiplied by the temperature to get
units of energy

Electronic entropy                ...      0.00000000 Eh      0.00 kcal/mol
Vibrational entropy               ...      8.16001484 Eh   5120.48 kcal/mol
Rotational entropy                ...      0.70769871 Eh    444.09 kcal/mol
Translational entropy             ...      0.96232531 Eh    603.87 kcal/mol
-----------------------------------------------------------------------
Final entropy term                ...      9.83003886 Eh   6168.43 kcal/mol

In case the symmetry of your molecule has not been determined correctly
or in case you have a reason to use a different symmetry number we print 
out the resulting rotational entropy values for sn=1,12 :
 --------------------------------------------------------
|  sn= 1 | S(rot)=       0.70769871 Eh    444.09 kcal/mol|
|  sn= 2 | S(rot)=       0.68574814 Eh    430.31 kcal/mol|
|  sn= 3 | S(rot)=       0.67290787 Eh    422.26 kcal/mol|
|  sn= 4 | S(rot)=       0.66379756 Eh    416.54 kcal/mol|
|  sn= 5 | S(rot)=       0.65673106 Eh    412.10 kcal/mol|
|  sn= 6 | S(rot)=       0.65095730 Eh    408.48 kcal/mol|
|  sn= 7 | S(rot)=       0.64607566 Eh    405.42 kcal/mol|
|  sn= 8 | S(rot)=       0.64184699 Eh    402.76 kcal/mol|
|  sn= 9 | S(rot)=       0.63811704 Eh    400.42 kcal/mol|
|  sn=10 | S(rot)=       0.63478048 Eh    398.33 kcal/mol|
|  sn=11 | S(rot)=       0.63176220 Eh    396.44 kcal/mol|
|  sn=12 | S(rot)=       0.62900673 Eh    394.71 kcal/mol|
 --------------------------------------------------------


-------------------
GIBBS FREE ENERGY
-------------------

The Gibbs free energy is G = H - T*S

Total enthalpy                    ...   -915.06836678 Eh 
Total entropy correction          ...     -9.83003886 Eh  -6168.43 kcal/mol
-----------------------------------------------------------------------
Final Gibbs free energy         ...   -924.89840564 Eh

For completeness - the Gibbs free energy minus the electronic energy
G-E(el)                           ...     -7.03505598 Eh  -4414.55 kcal/mol


Timings for individual modules:

Sum of individual times         ...    16341.179 sec (= 272.353 min)
GTO integral calculation        ...       36.290 sec (=   0.605 min)   0.2 %
SCF iterations                  ...     4048.213 sec (=  67.470 min)  24.8 %
SCF Gradient evaluation         ...     1012.040 sec (=  16.867 min)   6.2 %
Geometry relaxation             ...        1.947 sec (=   0.032 min)   0.0 %
Analytical frequency calculation...    11242.689 sec (= 187.378 min)  68.8 %
                             ****ORCA TERMINATED NORMALLY****
TOTAL RUN TIME: 0 days 4 hours 32 minutes 29 seconds 572 msec
