
                                 *****************
                                 * O   R   C   A *
                                 *****************

                                            #,                                       
                                            ###                                      
                                            ####                                     
                                            #####                                    
                                            ######                                   
                                           ########,                                 
                                     ,,################,,,,,                         
                               ,,#################################,,                 
                          ,,##########################################,,             
                       ,#########################################, ''#####,          
                    ,#############################################,,   '####,        
                  ,##################################################,,,,####,       
                ,###########''''           ''''###############################       
              ,#####''   ,,,,##########,,,,          '''####'''          '####       
            ,##' ,,,,###########################,,,                        '##       
           ' ,,###''''                  '''############,,,                           
         ,,##''                                '''############,,,,        ,,,,,,###''
      ,#''                                            '''#######################'''  
     '                                                          ''''####''''         
             ,#######,   #######,   ,#######,      ##                                
            ,#'     '#,  ##    ##  ,#'     '#,    #''#        ######   ,####,        
            ##       ##  ##   ,#'  ##            #'  '#       #        #'  '#        
            ##       ##  #######   ##           ,######,      #####,   #    #        
            '#,     ,#'  ##    ##  '#,     ,#' ,#      #,         ##   #,  ,#        
             '#######'   ##     ##  '#######'  #'      '#     #####' # '####'        



                  #######################################################
                  #                        -***-                        #
                  #          Department of theory and spectroscopy      #
                  #    Directorship and core code : Frank Neese         #
                  #        Max Planck Institute fuer Kohlenforschung    #
                  #                Kaiser Wilhelm Platz 1               #
                  #                 D-45470 Muelheim/Ruhr               #
                  #                      Germany                        #
                  #                                                     #
                  #                  All rights reserved                #
                  #                        -***-                        #
                  #######################################################



                         Program Version 5.0.4 -  RELEASE  -

 With contributions from (in alphabetic order):
   Daniel Aravena         : Magnetic Suceptibility
   Michael Atanasov       : Ab Initio Ligand Field Theory (pilot matlab implementation)
   Alexander A. Auer      : GIAO ZORA, VPT2 properties, NMR spectrum
   Ute Becker             : Parallelization
   Giovanni Bistoni       : ED, misc. LED, open-shell LED, HFLD
   Martin Brehm           : Molecular dynamics
   Dmytro Bykov           : SCF Hessian
   Vijay G. Chilkuri      : MRCI spin determinant printing, contributions to CSF-ICE
   Dipayan Datta          : RHF DLPNO-CCSD density
   Achintya Kumar Dutta   : EOM-CC, STEOM-CC
   Dmitry Ganyushin       : Spin-Orbit,Spin-Spin,Magnetic field MRCI
   Miquel Garcia          : C-PCM and meta-GGA Hessian, CC/C-PCM, Gaussian charge scheme
   Yang Guo               : DLPNO-NEVPT2, F12-NEVPT2, CIM, IAO-localization
   Andreas Hansen         : Spin unrestricted coupled pair/coupled cluster methods
   Benjamin Helmich-Paris : MC-RPA, TRAH-SCF, COSX integrals
   Lee Huntington         : MR-EOM, pCC
   Robert Izsak           : Overlap fitted RIJCOSX, COSX-SCS-MP3, EOM
   Marcus Kettner         : VPT2
   Christian Kollmar      : KDIIS, OOCD, Brueckner-CCSD(T), CCSD density, CASPT2, CASPT2-K
   Simone Kossmann        : Meta GGA functionals, TD-DFT gradient, OOMP2, MP2 Hessian
   Martin Krupicka        : Initial AUTO-CI
   Lucas Lang             : DCDCAS
   Marvin Lechner         : AUTO-CI (C++ implementation), FIC-MRCC
   Dagmar Lenk            : GEPOL surface, SMD
   Dimitrios Liakos       : Extrapolation schemes; Compound Job, initial MDCI parallelization
   Dimitrios Manganas     : Further ROCIS development; embedding schemes
   Dimitrios Pantazis     : SARC Basis sets
   Anastasios Papadopoulos: AUTO-CI, single reference methods and gradients
   Taras Petrenko         : DFT Hessian,TD-DFT gradient, ASA, ECA, R-Raman, ABS, FL, XAS/XES, NRVS
   Peter Pinski           : DLPNO-MP2, DLPNO-MP2 Gradient
   Christoph Reimann      : Effective Core Potentials
   Marius Retegan         : Local ZFS, SOC
   Christoph Riplinger    : Optimizer, TS searches, QM/MM, DLPNO-CCSD(T), (RO)-DLPNO pert. Triples
   Tobias Risthaus        : Range-separated hybrids, TD-DFT gradient, RPA, STAB
   Michael Roemelt        : Original ROCIS implementation
   Masaaki Saitow         : Open-shell DLPNO-CCSD energy and density
   Barbara Sandhoefer     : DKH picture change effects
   Avijit Sen             : IP-ROCIS
   Kantharuban Sivalingam : CASSCF convergence, NEVPT2, FIC-MRCI
   Bernardo de Souza      : ESD, SOC TD-DFT
   Georgi Stoychev        : AutoAux, RI-MP2 NMR, DLPNO-MP2 response
   Willem Van den Heuvel  : Paramagnetic NMR
   Boris Wezisla          : Elementary symmetry handling
   Frank Wennmohs         : Technical directorship


 We gratefully acknowledge several colleagues who have allowed us to
 interface, adapt or use parts of their codes:
   Stefan Grimme, W. Hujo, H. Kruse, P. Pracht,  : VdW corrections, initial TS optimization,
                  C. Bannwarth, S. Ehlert          DFT functionals, gCP, sTDA/sTD-DF
   Ed Valeev, F. Pavosevic, A. Kumar             : LibInt (2-el integral package), F12 methods
   Garnet Chan, S. Sharma, J. Yang, R. Olivares  : DMRG
   Ulf Ekstrom                                   : XCFun DFT Library
   Mihaly Kallay                                 : mrcc  (arbitrary order and MRCC methods)
   Jiri Pittner, Ondrej Demel                    : Mk-CCSD
   Frank Weinhold                                : gennbo (NPA and NBO analysis)
   Christopher J. Cramer and Donald G. Truhlar   : smd solvation model
   Lars Goerigk                                  : TD-DFT with DH, B97 family of functionals
   V. Asgeirsson, H. Jonsson                     : NEB implementation
   FAccTs GmbH                                   : IRC, NEB, NEB-TS, DLPNO-Multilevel, CI-OPT
                                                   MM, QMMM, 2- and 3-layer-ONIOM, Crystal-QMMM,
                                                   LR-CPCM, SF, NACMEs, symmetry and pop. for TD-DFT,
                                                   nearIR, NL-DFT gradient (VV10), updates on ESD,
                                                   ML-optimized integration grids
   S Lehtola, MJT Oliveira, MAL Marques          : LibXC Library
   Liviu Ungur et al                             : ANISO software


 Your calculation uses the libint2 library for the computation of 2-el integrals
 For citations please refer to: http://libint.valeyev.net

 Your ORCA version has been built with support for libXC version: 5.1.0
 For citations please refer to: https://tddft.org/programs/libxc/

 This ORCA versions uses:
   CBLAS   interface :  Fast vector & matrix operations
   LAPACKE interface :  Fast linear algebra routines
   Shared memory     :  Shared parallel matrices


Your calculation utilizes the atom-pairwise dispersion correction
based on tight binding partial charges (D4)
Cite in your paper:
E.Caldeweyher, C.Bannwarth, S.Grimme, J.Chem.Phys., (2017), 147, 034112.
E.Caldeweyher, S.Ehlert, A.Hansen, H.Neugebauer, S.Grimme, J.Chem.Phys., (2018), in progress.
   

================================================================================

----- Orbital basis set information -----
Your calculation utilizes the basis: 6-311+G**
   H, Li - Ne  : R. Krishnan, J. S. Binkley, R. Seeger and J. A. Pople, J. Chem. Phys. 72, 650 (1980).
   Na - Ar     : A. D. McLean and G. S. Chandler J. Chem. Phys. 72, 5639, (1980).
   K  - Ca     : J.-P. Blaudeau, M. P. McGrath, L. A. Curtiss and L. Radom, J. Chem. Phys. 107, 5016 (1997).
   Ga - Kr     : L. A. Curtiss, M. P. McGrath, J.-P. Blandeau, N. E. Davis, R. C. Binning and L. Radom, J. Chem. Phys. 103, 6104 (1995).
   Pol./Diff.
   H, Li - Cl  : T. Clark, J. Chandrasekhar and P. v. R. Schleyer, J. Comp. Chem. 4, 294 (1983).
   H - Ne      : M. J. Frisch, J. A. Pople and J. S. Binkley, J. Chem. Phys. 80, 3265 (1984).

----- AuxJ basis set information -----
Your calculation utilizes the auxiliary basis: def2/J
   F. Weigend, Phys. Chem. Chem. Phys. 8, 1057 (2006).

================================================================================
                                        WARNINGS
                       Please study these warnings very carefully!
================================================================================

INFO   : Checking CIS options ...

WARNING: CIS/ROCIS methods need fully converged wavefunctions
  ===> : Setting SCFConvForced true
         You can overwrite this default with %scf ConvForced false 


INFO   : the flag for use of the SHARK integral package has been found!

================================================================================
                                       INPUT FILE
================================================================================
NAME = Stone-Wales_defect_loss_eight.inp
|  1> !b3lyp 6-311+g** d4 moread UKS
|  2> 
|  3> %moinp "Stone-Wales_defect_loss_eight_orca6.0.gbw"
|  4> 
|  5> %scf
|  6>   stabperform true
|  7>   stabdtol 0.00001
|  8>   stabrtol 0.00001
|  9>   end
| 10>   
| 11> %maxcore 5000
| 12> %pal
| 13> nprocs 8
| 14> end
| 15> 
| 16> %tddft
| 17>   nroots 1000
| 18>   end
| 19> 
| 20> * xyz 0 1
| 21>   C   2.64677421432996     -3.23839622498648      0.00422147310361
| 22>   C   1.57174458858647     -3.87473140354969      0.00358333406275
| 23>   C   0.41260432106449     -3.06326470212235      0.00438073012683
| 24>   C   -0.92829278422802     -3.47508720048048      0.00395332087197
| 25>   C   -2.09297755524028     -2.73648157822942      0.00466585109472
| 26>   C   -2.21333690041290     -1.33066509425227      0.00608193211152
| 27>   C   -3.42626295528207     -0.58948271655408      0.00681919371308
| 28>   C   -3.67563478812837      0.61967812555275      0.00805521529239
| 29>   C   -2.71144972706951      1.65166996227796      0.00912326725315
| 30>   C   -2.51629703655797      3.03611918458737      0.01053654785892
| 31>   C   -1.44483985356360      3.67012219068695      0.01118455172180
| 32>   C   -0.13728741840871      3.17542057672381      0.01067892044226
| 33>   C   1.23134541908029      3.52451227209350      0.01103383042187
| 34>   C   2.17092146406024      2.72366785951874      0.01021765074334
| 35>   C   2.23746174539702      1.30398873081684      0.00877624478226
| 36>   C   3.41193442441387      0.52212640148376      0.00799580576503
| 37>   C   3.49909882268844     -0.85427778797007      0.00661447764163
| 38>   C   2.49312117710644     -1.83184182356405      0.00562455686336
| 39>   C   0.30836952609245     -0.51399940320928      0.00693247773696
| 40>   C   -1.41959042081622      1.01482928301653      0.00848276383496
| 41>   C   -1.15287372180037     -0.37244020810873      0.00706955961394
| 42>   C   1.00436239231080     -1.68985586306334      0.00576169250620
| 43>   H   -1.05421447151150     -4.55302845942121      0.00287592109981
| 44>   H   -3.02447748164697     -3.28913584142590      0.00409558982765
| 45>   H   4.34468993260132      1.07267593021159      0.00855283214918
| 46>   H   4.50478466908576     -1.26221559122214      0.00620909867069
| 47>   C   0.88727329211473      0.83509171807148      0.00829761005761
| 48>   C   -0.20043087426579      1.73645166311816      0.00921555063249
| 49> **                         ****END OF INPUT****
================================================================================

                       ****************************
                       * Single Point Calculation *
                       ****************************

---------------------------------
CARTESIAN COORDINATES (ANGSTROEM)
---------------------------------
  C      2.646774   -3.238396    0.004221
  C      1.571745   -3.874731    0.003583
  C      0.412604   -3.063265    0.004381
  C     -0.928293   -3.475087    0.003953
  C     -2.092978   -2.736482    0.004666
  C     -2.213337   -1.330665    0.006082
  C     -3.426263   -0.589483    0.006819
  C     -3.675635    0.619678    0.008055
  C     -2.711450    1.651670    0.009123
  C     -2.516297    3.036119    0.010537
  C     -1.444840    3.670122    0.011185
  C     -0.137287    3.175421    0.010679
  C      1.231345    3.524512    0.011034
  C      2.170921    2.723668    0.010218
  C      2.237462    1.303989    0.008776
  C      3.411934    0.522126    0.007996
  C      3.499099   -0.854278    0.006614
  C      2.493121   -1.831842    0.005625
  C      0.308370   -0.513999    0.006932
  C     -1.419590    1.014829    0.008483
  C     -1.152874   -0.372440    0.007070
  C      1.004362   -1.689856    0.005762
  H     -1.054214   -4.553028    0.002876
  H     -3.024477   -3.289136    0.004096
  H      4.344690    1.072676    0.008553
  H      4.504785   -1.262216    0.006209
  C      0.887273    0.835092    0.008298
  C     -0.200431    1.736452    0.009216

----------------------------
CARTESIAN COORDINATES (A.U.)
----------------------------
  NO LB      ZA    FRAG     MASS         X           Y           Z
   0 C     6.0000    0    12.011    5.001678   -6.119682    0.007977
   1 C     6.0000    0    12.011    2.970167   -7.322181    0.006772
   2 C     6.0000    0    12.011    0.779709   -5.788731    0.008278
   3 C     6.0000    0    12.011   -1.754219   -6.566963    0.007471
   4 C     6.0000    0    12.011   -3.955154   -5.171201    0.008817
   5 C     6.0000    0    12.011   -4.182601   -2.514593    0.011493
   6 C     6.0000    0    12.011   -6.474699   -1.113961    0.012886
   7 C     6.0000    0    12.011   -6.945943    1.171022    0.015222
   8 C     6.0000    0    12.011   -5.123897    3.121204    0.017240
   9 C     6.0000    0    12.011   -4.755112    5.737434    0.019911
  10 C     6.0000    0    12.011   -2.730352    6.935526    0.021136
  11 C     6.0000    0    12.011   -0.259436    6.000675    0.020180
  12 C     6.0000    0    12.011    2.326906    6.660363    0.020851
  13 C     6.0000    0    12.011    4.102447    5.146986    0.019309
  14 C     6.0000    0    12.011    4.228190    2.464182    0.016585
  15 C     6.0000    0    12.011    6.447622    0.986676    0.015110
  16 C     6.0000    0    12.011    6.612338   -1.614351    0.012500
  17 C     6.0000    0    12.011    4.711316   -3.461679    0.010629
  18 C     6.0000    0    12.011    0.582734   -0.971318    0.013100
  19 C     6.0000    0    12.011   -2.682637    1.917749    0.016030
  20 C     6.0000    0    12.011   -2.178616   -0.703810    0.013360
  21 C     6.0000    0    12.011    1.897970   -3.193365    0.010888
  22 H     1.0000    0     1.008   -1.992177   -8.603977    0.005435
  23 H     1.0000    0     1.008   -5.715434   -6.215566    0.007740
  24 H     1.0000    0     1.008    8.210274    2.027064    0.016163
  25 H     1.0000    0     1.008    8.512809   -2.385242    0.011733
  26 C     6.0000    0    12.011    1.676704    1.578095    0.015680
  27 C     6.0000    0    12.011   -0.378759    3.281418    0.017415

--------------------------------
INTERNAL COORDINATES (ANGSTROEM)
--------------------------------
 C      0   0   0     0.000000000000     0.00000000     0.00000000
 C      1   0   0     1.249244396795     0.00000000     0.00000000
 C      2   1   0     1.414950530286   114.38339912     0.00000000
 C      3   2   1     1.402712728899   127.93267474   179.99946945
 C      4   3   2     1.379140815417   130.54541265   180.00065479
 C      5   4   3     1.410960085856   127.27502572     0.00000000
 C      6   5   4     1.421457517883   126.32130888   180.00117604
 C      7   6   5     1.234608351199   133.08088638   179.99877903
 C      8   7   6     1.412324723203   125.29247350     0.00000000
 C      9   8   7     1.398136695438   144.96908392   179.99947974
 C     10   9   8     1.244982219408   128.63725450   180.00098264
 C     11  10   9     1.398006907422   128.66259025     0.00000000
 C     12  11  10     1.412452116566   144.96716026   179.99986652
 C     13  12  11     1.234566961976   125.24837577   179.99992129
 C     14  13  12     1.421238373801   133.12599975     0.00000000
 C     15  14  13     1.410920049072   126.33574057   180.00087074
 C     16  15  14     1.379162076458   127.27582044   179.99917124
 C     17  16  15     1.402720017338   130.55576221     0.00000000
 C      3   2   1     2.551396670089   127.33572023     0.00000000
 C      9   8   7     1.440300985267   106.81282241     0.00000000
 C     20   9   8     1.412677045785   127.12456598     0.00000000
 C     19   3   2     1.366398863709    28.27998689     0.00000000
 H      4   3   2     1.085271758522   113.73592936     0.00000000
 H      5   4   3     1.083106261049   116.93797371   179.99941686
 H     16  15  14     1.083114920918   115.79693102     0.00000000
 H     17  16  15     1.085272978240   115.70259616   180.00002006
 C     15  14  13     1.429291256893   106.46775124     0.00000000
 C     27  15  14     1.412639708741   121.20084698     0.00000000

---------------------------
INTERNAL COORDINATES (A.U.)
---------------------------
 C      0   0   0     0.000000000000     0.00000000     0.00000000
 C      1   0   0     2.360729784279     0.00000000     0.00000000
 C      2   1   0     2.673868995287   114.38339912     0.00000000
 C      3   2   1     2.650742902184   127.93267474   179.99946945
 C      4   3   2     2.606198441250   130.54541265   180.00065479
 C      5   4   3     2.666328148161   127.27502572     0.00000000
 C      6   5   4     2.686165419802   126.32130888   180.00117604
 C      7   6   5     2.333071666419   133.08088638   179.99877903
 C      8   7   6     2.668906939021   125.29247350     0.00000000
 C      9   8   7     2.642095452163   144.96908392   179.99947974
 C     10   9   8     2.352675436283   128.63725450   180.00098264
 C     11  10   9     2.641850188358   128.66259025     0.00000000
 C     12  11  10     2.669147677586   144.96716026   179.99986652
 C     13  12  11     2.332993452121   125.24837577   179.99992129
 C     14  13  12     2.685751297503   133.12599975     0.00000000
 C     15  14  13     2.666252489604   126.33574057   180.00087074
 C     16  15  14     2.606238618796   127.27582044   179.99917124
 C     17  16  15     2.650756675338   130.55576221     0.00000000
 C      3   2   1     4.821440965467   127.33572023     0.00000000
 C      9   8   7     2.721774412571   106.81282241     0.00000000
 C     20   9   8     2.669572732210   127.12456598     0.00000000
 C     19   3   2     2.582119642111    28.27998689     0.00000000
 H      4   3   2     2.050866404486   113.73592936     0.00000000
 H      5   4   3     2.046774207317   116.93797371   179.99941686
 H     16  15  14     2.046790572098   115.79693102     0.00000000
 H     17  16  15     2.050868709419   115.70259616   180.00002006
 C     15  14  13     2.700969041135   106.46775124     0.00000000
 C     27  15  14     2.669502175422   121.20084698     0.00000000

---------------------
BASIS SET INFORMATION
---------------------
There are 2 groups of distinct atoms

 Group   1 Type C   : 12s6p1d contracted to 5s4p1d pattern {63111/3111/1}
 Group   2 Type H   : 5s1p contracted to 3s1p pattern {311/1}

Atom   0C    basis set group =>   1
Atom   1C    basis set group =>   1
Atom   2C    basis set group =>   1
Atom   3C    basis set group =>   1
Atom   4C    basis set group =>   1
Atom   5C    basis set group =>   1
Atom   6C    basis set group =>   1
Atom   7C    basis set group =>   1
Atom   8C    basis set group =>   1
Atom   9C    basis set group =>   1
Atom  10C    basis set group =>   1
Atom  11C    basis set group =>   1
Atom  12C    basis set group =>   1
Atom  13C    basis set group =>   1
Atom  14C    basis set group =>   1
Atom  15C    basis set group =>   1
Atom  16C    basis set group =>   1
Atom  17C    basis set group =>   1
Atom  18C    basis set group =>   1
Atom  19C    basis set group =>   1
Atom  20C    basis set group =>   1
Atom  21C    basis set group =>   1
Atom  22H    basis set group =>   2
Atom  23H    basis set group =>   2
Atom  24H    basis set group =>   2
Atom  25H    basis set group =>   2
Atom  26C    basis set group =>   1
Atom  27C    basis set group =>   1
---------------------------------
AUXILIARY/J BASIS SET INFORMATION
---------------------------------
There are 2 groups of distinct atoms

 Group   1 Type C   : 12s5p4d2f1g contracted to 6s4p3d1f1g pattern {711111/2111/211/2/1}
 Group   2 Type H   : 5s2p1d contracted to 3s1p1d pattern {311/2/1}

Atom   0C    basis set group =>   1
Atom   1C    basis set group =>   1
Atom   2C    basis set group =>   1
Atom   3C    basis set group =>   1
Atom   4C    basis set group =>   1
Atom   5C    basis set group =>   1
Atom   6C    basis set group =>   1
Atom   7C    basis set group =>   1
Atom   8C    basis set group =>   1
Atom   9C    basis set group =>   1
Atom  10C    basis set group =>   1
Atom  11C    basis set group =>   1
Atom  12C    basis set group =>   1
Atom  13C    basis set group =>   1
Atom  14C    basis set group =>   1
Atom  15C    basis set group =>   1
Atom  16C    basis set group =>   1
Atom  17C    basis set group =>   1
Atom  18C    basis set group =>   1
Atom  19C    basis set group =>   1
Atom  20C    basis set group =>   1
Atom  21C    basis set group =>   1
Atom  22H    basis set group =>   2
Atom  23H    basis set group =>   2
Atom  24H    basis set group =>   2
Atom  25H    basis set group =>   2
Atom  26C    basis set group =>   1
Atom  27C    basis set group =>   1


           ************************************************************
           *        Program running with 8 parallel MPI-processes     *
           *              working on a common directory               *
           ************************************************************
------------------------------------------------------------------------------
                           ORCA GTO INTEGRAL CALCULATION
                           -- RI-GTO INTEGRALS CHOSEN --
------------------------------------------------------------------------------
------------------------------------------------------------------------------
                   ___                                                        
                  /   \      - P O W E R E D   B Y -                         
                 /     \                                                     
                 |  |  |   _    _      __       _____    __    __             
                 |  |  |  | |  | |    /  \     |  _  \  |  |  /  |          
                  \  \/   | |  | |   /    \    | | | |  |  | /  /          
                 / \  \   | |__| |  /  /\  \   | |_| |  |  |/  /          
                |  |  |   |  __  | /  /__\  \  |    /   |      \           
                |  |  |   | |  | | |   __   |  |    \   |  |\   \          
                \     /   | |  | | |  |  |  |  | |\  \  |  | \   \       
                 \___/    |_|  |_| |__|  |__|  |_| \__\ |__|  \__/        
                                                                              
                      - O R C A' S   B I G   F R I E N D -                    
                                      &                                       
                       - I N T E G R A L  F E E D E R -                       
                                                                              
 v1 FN, 2020, v2 2021                                                         
------------------------------------------------------------------------------


Reading SHARK input file Stone-Wales_defect_loss_eight.SHARKINP.tmp ... ok
----------------------
SHARK INTEGRAL PACKAGE
----------------------

Number of atoms                             ...     28
Number of basis functions                   ...    552
Number of shells                            ...    256
Maximum angular momentum                    ...      2
Integral batch strategy                     ... SHARK/LIBINT Hybrid
RI-J (if used) integral strategy            ... SPLIT-RIJ (Revised 2003 algorithm where possible)
Printlevel                                  ...      1
Contraction scheme used                     ... SEGMENTED contraction
Coulomb Range Separation                    ... NOT USED
Exchange Range Separation                   ... NOT USED
Finite Nucleus Model                        ... NOT USED
Auxiliary Coulomb fitting basis             ... AVAILABLE
   # of basis functions in Aux-J            ...   1220
   # of shells in Aux-J                     ...    380
   Maximum angular momentum in Aux-J        ...      4
Auxiliary J/K fitting basis                 ... NOT available
Auxiliary Correlation fitting basis         ... NOT available
Auxiliary 'external' fitting basis          ... NOT available
Integral threshold                          ...     1.000000e-10
Primitive cut-off                           ...     1.000000e-11
Primitive pair pre-selection threshold      ...     1.000000e-11

Calculating pre-screening integrals         ... done (  0.0 sec) Dimension = 256
Organizing shell pair data                  ... done (  0.2 sec)
Shell pair information
Total number of shell pairs                 ...     32896
Shell pairs after pre-screening             ...     26799
Total number of primitive shell pairs       ...    115956
Primitive shell pairs kept                  ...     61972
          la=0 lb=0:   6782 shell pairs
          la=1 lb=0:  11002 shell pairs
          la=1 lb=1:   4476 shell pairs
          la=2 lb=0:   2358 shell pairs
          la=2 lb=1:   1954 shell pairs
          la=2 lb=2:    227 shell pairs

Calculating one electron integrals          ... done (  0.0 sec)
Calculating RI/J V-Matrix + Cholesky decomp.... done (  0.1 sec)
Calculating Nuclear repulsion               ... done (  0.0 sec) ENN=   1677.176224367166 Eh

SHARK setup successfully completed in   0.6 seconds

Maximum memory used throughout the entire GTOINT-calculation: 37.3 MB


           ************************************************************
           *        Program running with 8 parallel MPI-processes     *
           *              working on a common directory               *
           ************************************************************
-------------------------------------------------------------------------------
                                 ORCA SCF
-------------------------------------------------------------------------------

------------
SCF SETTINGS
------------
Hamiltonian:
 Density Functional     Method          .... DFT(GTOs)
 Exchange Functional    Exchange        .... B88
   X-Alpha parameter    XAlpha          ....  0.666667
   Becke's b parameter  XBeta           ....  0.004200
 Correlation Functional Correlation     .... LYP
 LDA part of GGA corr.  LDAOpt          .... VWN-5
 Gradients option       PostSCFGGA      .... off
 Hybrid DFT is turned on
   Fraction HF Exchange ScalHFX         ....  0.200000
   Scaling of DF-GGA-X  ScalDFX         ....  0.720000
   Scaling of DF-GGA-C  ScalDFC         ....  0.810000
   Scaling of DF-LDA-C  ScalLDAC        ....  1.000000
   Perturbative correction              ....  0.000000
   Density functional embedding theory  .... OFF
   NL short-range parameter             ....  4.800000
 RI-approximation to the Coulomb term is turned on
   Number of AuxJ basis functions       .... 1220
   RIJ-COSX (HFX calculated with COS-X)).... on


General Settings:
 Integral files         IntName         .... Stone-Wales_defect_loss_eight
 Hartree-Fock type      HFTyp           .... UHF
 Total Charge           Charge          ....    0
 Multiplicity           Mult            ....    1
 Number of Electrons    NEL             ....  148
 Basis Dimension        Dim             ....  552
 Nuclear Repulsion      ENuc            ....   1677.1762243672 Eh

Convergence Acceleration:
 DIIS                   CNVDIIS         .... on
   Start iteration      DIISMaxIt       ....    12
   Startup error        DIISStart       ....  0.200000
   # of expansion vecs  DIISMaxEq       ....     5
   Bias factor          DIISBfac        ....   1.050
   Max. coefficient     DIISMaxC        ....  10.000
 Trust-Rad. Augm. Hess. CNVTRAH         .... auto
   Auto Start mean grad. ratio tolernc. ....  1.125000
   Auto Start start iteration           ....     1
   Auto Start num. interpolation iter.  ....    10
   Max. Number of Micro iterations      ....    16
   Max. Number of Macro iterations      .... Maxiter - #DIIS iter
   Number of Davidson start vectors     ....     2
   Converg. threshold I  (grad. norm)   ....   5.000e-05
   Converg. threshold II (energy diff.) ....   1.000e-06
   Grad. Scal. Fac. for Micro threshold ....   0.100
   Minimum threshold for Micro iter.    ....   0.010
   NR start threshold (gradient norm)   ....   0.001
   Initial trust radius                 ....   0.400
   Minimum AH scaling param. (alpha)    ....   1.000
   Maximum AH scaling param. (alpha)    .... 1000.000
   Orbital update algorithm             .... Taylor
   White noise on init. David. guess    .... on
   Maximum white noise                  ....   0.010
   Quad. conv. algorithm                .... NR
 SOSCF                  CNVSOSCF        .... off
 Level Shifting         CNVShift        .... on
   Level shift para.    LevelShift      ....    0.2500
   Turn off err/grad.   ShiftErr        ....    0.0010
 Zerner damping         CNVZerner       .... off
 Static damping         CNVDamp         .... on
   Fraction old density DampFac         ....    0.7000
   Max. Damping (<1)    DampMax         ....    0.9800
   Min. Damping (>=0)   DampMin         ....    0.0000
   Turn off err/grad.   DampErr         ....    0.1000
 Fernandez-Rico         CNVRico         .... off

SCF Procedure:
 Maximum # iterations   MaxIter         ....   125
 SCF integral mode      SCFMode         .... Direct
   Integral package                     .... SHARK and LIBINT hybrid scheme
 Reset frequency        DirectResetFreq ....    20
 Integral Threshold     Thresh          ....  1.000e-10 Eh
 Primitive CutOff       TCut            ....  1.000e-11 Eh

Convergence Tolerance:
 Convergence Check Mode ConvCheckMode   .... Total+1el-Energy
 Convergence forced     ConvForced      .... 1
 Energy Change          TolE            ....  1.000e-06 Eh
 1-El. energy change                    ....  1.000e-03 Eh
 DIIS Error             TolErr          ....  1.000e-06


Diagonalization of the overlap matrix:
Smallest eigenvalue                        ... 7.556e-10
Time for diagonalization                   ...    0.026 sec
Threshold for overlap eigenvalues          ... 1.000e-08
Number of eigenvalues below threshold      ... 5
Smallest eigenvalue above threshold        ... 1.028e-08
Time for construction of square roots      ...    0.047 sec
Total time needed                          ...    0.075 sec

---------------------
INITIAL GUESS: MOREAD
---------------------
Guess MOs are being read from file: Stone-Wales_defect_loss_eight_orca6.0.gbw
Input Geometry matches current geometry (good)
Input basis set matches current basis set (good)
MOs were renormalized
MOs were reorthogonalized (Cholesky)
                      ------------------
                      INITIAL GUESS DONE (   0.2 sec)
                      ------------------
-------------------
DFT GRID GENERATION
-------------------

General Integration Accuracy     IntAcc      ... 4.388
Radial Grid Type                 RadialGrid  ... OptM3 with GC (2021)
Angular Grid (max. ang.)         AngularGrid ... 4 (Lebedev-302)
Angular grid pruning method      GridPruning ... 4 (adaptive)
Weight generation scheme         WeightScheme... Becke
Basis function cutoff            BFCut       ... 1.0000e-10
Integration weight cutoff        WCut        ... 1.0000e-14
Angular grids for H and He will be reduced by one unit
Partially contracted basis set               ... off
Rotationally invariant grid construction     ... off

Total number of grid points                  ...   161057
Total number of batches                      ...     2533
Average number of points per batch           ...       63
Average number of grid points per atom       ...     5752
Time for grid setup =    1.171 sec

--------------------
COSX GRID GENERATION
--------------------

GRIDX 1
-------
General Integration Accuracy     IntAcc      ... 3.816
Radial Grid Type                 RadialGrid  ... OptM3 with GC (2021)
Angular Grid (max. ang.)         AngularGrid ... 1 (Lebedev-50)
Angular grid pruning method      GridPruning ... 4 (adaptive)
Weight generation scheme         WeightScheme... Becke
Basis function cutoff            BFCut       ... 1.0000e-10
Integration weight cutoff        WCut        ... 1.0000e-14
Angular grids for H and He will be reduced by one unit
Partially contracted basis set               ... on
Rotationally invariant grid construction     ... off

Total number of grid points                  ...    20373
Total number of batches                      ...      331
Average number of points per batch           ...       61
Average number of grid points per atom       ...      728
UseSFitting                                  ... on

GRIDX 2
-------
General Integration Accuracy     IntAcc      ... 4.020
Radial Grid Type                 RadialGrid  ... OptM3 with GC (2021)
Angular Grid (max. ang.)         AngularGrid ... 2 (Lebedev-110)
Angular grid pruning method      GridPruning ... 4 (adaptive)
Weight generation scheme         WeightScheme... Becke
Basis function cutoff            BFCut       ... 1.0000e-10
Integration weight cutoff        WCut        ... 1.0000e-14
Angular grids for H and He will be reduced by one unit
Partially contracted basis set               ... on
Rotationally invariant grid construction     ... off

Total number of grid points                  ...    51224
Total number of batches                      ...      818
Average number of points per batch           ...       62
Average number of grid points per atom       ...     1829
UseSFitting                                  ... on

GRIDX 3
-------
General Integration Accuracy     IntAcc      ... 4.338
Radial Grid Type                 RadialGrid  ... OptM3 with GC (2021)
Angular Grid (max. ang.)         AngularGrid ... 3 (Lebedev-194)
Angular grid pruning method      GridPruning ... 4 (adaptive)
Weight generation scheme         WeightScheme... Becke
Basis function cutoff            BFCut       ... 1.0000e-10
Integration weight cutoff        WCut        ... 1.0000e-14
Angular grids for H and He will be reduced by one unit
Partially contracted basis set               ... on
Rotationally invariant grid construction     ... off

Total number of grid points                  ...   110741
Total number of batches                      ...     1743
Average number of points per batch           ...       63
Average number of grid points per atom       ...     3955
UseSFitting                                  ... on

Time for X-Grid setup             =    1.702 sec

--------------
SCF ITERATIONS
--------------
ITER       Energy         Delta-E        Max-DP      RMS-DP      [F,P]     Damp
               ***  Starting incremental Fock matrix formation  ***
  0   -916.0758788675   0.000000000000 0.53928720  0.00535563  0.0001111 0.7000
                 **** Energy Check signals convergence ****

               *****************************************************
               *                     SUCCESS                       *
               *           SCF CONVERGED AFTER   1 CYCLES          *
               *****************************************************


------------------------------------------------------------------------------
                          SCF STABILITY ANALYSIS                              
------------------------------------------------------------------------------


---------------
TD-DFT XC SETUP
---------------

DFT calculation                         ... on
Name of the grid file                   ... Stone-Wales_defect_loss_eight.grid.tmp
Exchange functional (SCF)               ... B88
Exchange functional (TD-DFT)            ... B88
   X-Alpha parameter    XAlpha (SCF)    ...  0.666667
   X-Alpha parameter    XAlpha (TD-DFT) ...  0.666667
   Becke's b parameter  XBeta (SCF)     ...  0.004200
   Becke's b parameter  XBeta (TD-DFT)  ...  0.004200
Correlation functional (SCF)            ... LYP
Correlation functional (TD-DFT)         ... LYP
 LDA part of GGA corr.  LDAOpt (SCF)    ... VWN-5
 LDA part of GGA corr.  LDAOpt (TD-DFT) ... VWN-5
Hybrid DFT                              ... on
   Exchange mixing (SCF)                ...  0.200
   Exchange mixing (TD-DFT)             ...  0.200
   GGA exch. scaling(SCF)               ...  0.720
   GGA exch. scaling (TD-DFT)           ...  0.720
   GGA corr. scaling (SCF)              ...  0.810
   GGA corr. scaling (TD-DFT)           ...  0.810

Electron density on the grid   ... found on disk
Building xc-kernel on the grid ... done
                    *** TD-DFT CALCULATION INITIALIZED ***

                       ****Iteration    0****

   Memory handling for direct AO based CIS:
   Memory per vector needed      ...    18 MB
   Memory needed                 ...   108 MB
   Memory available              ...  5000 MB
   Number of vectors per batch   ...   275
   Number of batches             ...     1
   Time for densities:     0.116
   Time for XC-Integration:    12.807
   Time for K (COSX):    94.392
   Time for RI-J (Direct):     3.392
   Time for Sigma-Completion:     0.105
   Lowest Energy          :     0.048723753280
   Maximum Energy change  :     0.057841873187 (vector 2)
   Maximum residual norm  :     0.001982080545

                       ****Iteration    1****
   Time for densities:     0.070
   Time for XC-Integration:     7.821
   Time for K (COSX):    86.472
   Time for RI-J (Direct):     2.059
   Time for Sigma-Completion:     0.052
   Lowest Energy          :     0.043757953371
   Maximum Energy change  :     0.006244542807 (vector 1)
   Maximum residual norm  :     0.002737607232

                       ****Iteration    2****
   Time for densities:     0.084
   Time for XC-Integration:     7.866
   Time for K (COSX):    83.676
   Time for RI-J (Direct):     2.043
   Time for Sigma-Completion:     0.049
   Lowest Energy          :     0.043168928521
   Maximum Energy change  :     0.002777142420 (vector 1)
   Maximum residual norm  :     0.000909013261

                       ****Iteration    3****
   Time for densities:     0.068
   Time for XC-Integration:     8.039
   Time for K (COSX):    83.518
   Time for RI-J (Direct):     2.082
   Time for Sigma-Completion:     0.042
   Lowest Energy          :     0.040672248493
   Maximum Energy change  :     0.002496680028 (vector 0)
   Maximum residual norm  :     0.002203584603

                       ****Iteration    4****
   Time for densities:     0.047
   Time for XC-Integration:     8.627
   Time for K (COSX):    83.161
   Time for RI-J (Direct):     2.056
   Time for Sigma-Completion:     0.041
   Lowest Energy          :     0.036453570343
   Maximum Energy change  :     0.004218678150 (vector 0)
   Maximum residual norm  :     0.001769197202

                       ****Iteration    5****
   Time for densities:     0.069
   Time for XC-Integration:     8.655
   Time for K (COSX):    83.668
   Time for RI-J (Direct):     2.032
   Time for Sigma-Completion:     0.048
   Lowest Energy          :     0.035051480533
   Maximum Energy change  :     0.001402089810 (vector 0)
   Maximum residual norm  :     0.000417109366

                       ****Iteration    6****
   Time for densities:     0.069
   Time for XC-Integration:     8.606
   Time for K (COSX):    83.302
   Time for RI-J (Direct):     2.081
   Time for Sigma-Completion:     0.045
   Lowest Energy          :     0.034050907365
   Maximum Energy change  :     0.001000573168 (vector 0)
   Maximum residual norm  :     0.000676900165

                       ****Iteration    7****
   Time for densities:     0.063
   Time for XC-Integration:     8.786
   Time for K (COSX):    83.695
   Time for RI-J (Direct):     1.990
   Time for Sigma-Completion:     0.041
   Lowest Energy          :     0.033135407056
   Maximum Energy change  :     0.000915500309 (vector 0)
   Maximum residual norm  :     0.000318622404

                       ****Iteration    8****
   Time for densities:     0.066
   Time for XC-Integration:     8.697
   Time for K (COSX):    83.584
   Time for RI-J (Direct):     2.036
   Time for Sigma-Completion:     0.043
   Lowest Energy          :     0.032656191967
   Maximum Energy change  :     0.000479215089 (vector 0)
   Maximum residual norm  :     0.000376771547

                       ****Iteration    9****
   Time for densities:     0.046
   Time for XC-Integration:     5.871
   Time for K (COSX):    80.562
   Time for RI-J (Direct):     1.481
   Time for Sigma-Completion:     0.029
   Lowest Energy          :     0.031454563526
   Maximum Energy change  :     0.004546584758 (vector 2)
   Maximum residual norm  :     0.004694386607

                       ****Iteration   10****
   Time for densities:     0.041
   Time for XC-Integration:     5.917
   Time for K (COSX):    79.789
   Time for RI-J (Direct):     1.587
   Time for Sigma-Completion:     0.038
   Lowest Energy          :     0.030248533065
   Maximum Energy change  :     0.004888313557 (vector 2)
   Maximum residual norm  :     0.001966398429

                       ****Iteration   11****
   Time for densities:     0.072
   Time for XC-Integration:     8.621
   Time for K (COSX):    83.212
   Time for RI-J (Direct):     2.108
   Time for Sigma-Completion:     0.043
   Lowest Energy          :     0.029307690679
   Maximum Energy change  :     0.002464126675 (vector 1)
   Maximum residual norm  :     0.000780997001

                       ****Iteration   12****
   Time for densities:     0.040
   Time for XC-Integration:     5.906
   Time for K (COSX):    80.273
   Time for RI-J (Direct):     1.547
   Time for Sigma-Completion:     0.027
   Lowest Energy          :     0.028616905050
   Maximum Energy change  :     0.001260483909 (vector 1)
   Maximum residual norm  :     0.000342362382

                       ****Iteration   13****
   Time for densities:     0.045
   Time for XC-Integration:     5.931
   Time for K (COSX):    79.834
   Time for RI-J (Direct):     1.527
   Time for Sigma-Completion:     0.028
   Lowest Energy          :     0.028074554757
   Maximum Energy change  :     0.000967402208 (vector 1)
   Maximum residual norm  :     0.000887066402

                       ****Iteration   14****
   Time for densities:     0.050
   Time for XC-Integration:     5.814
   Time for K (COSX):    80.010
   Time for RI-J (Direct):     1.520
   Time for Sigma-Completion:     0.042
   Lowest Energy          :     0.027338289389
   Maximum Energy change  :     0.002027444982 (vector 1)
   Maximum residual norm  :     0.001000483655

                       ****Iteration   15****
   Time for densities:     0.043
   Time for XC-Integration:     6.004
   Time for K (COSX):    79.986
   Time for RI-J (Direct):     1.577
   Time for Sigma-Completion:     0.026
   Lowest Energy          :     0.026963481692
   Maximum Energy change  :     0.001230790428 (vector 1)
   Maximum residual norm  :     0.000585421334

                       ****Iteration   16****
   Time for densities:     0.069
   Time for XC-Integration:     8.656
   Time for K (COSX):    83.008
   Time for RI-J (Direct):     2.109
   Time for Sigma-Completion:     0.054
   Lowest Energy          :     0.026807254629
   Maximum Energy change  :     0.000578659269 (vector 2)
   Maximum residual norm  :     0.000123841294

                       ****Iteration   17****
   Time for densities:     0.045
   Time for XC-Integration:     8.860
   Time for K (COSX):    83.119
   Time for RI-J (Direct):     2.073
   Time for Sigma-Completion:     0.051
   Lowest Energy          :     0.026696527893
   Maximum Energy change  :     0.000231207709 (vector 1)
   Maximum residual norm  :     0.000215787449

                       ****Iteration   18****
   Time for densities:     0.067
   Time for XC-Integration:     9.033
   Time for K (COSX):    83.110
   Time for RI-J (Direct):     2.043
   Time for Sigma-Completion:     0.045
   Lowest Energy          :     0.026136884192
   Maximum Energy change  :     0.007210865758 (vector 2)
   Maximum residual norm  :     0.002779529123

                       ****Iteration   19****
   Time for densities:     0.046
   Time for XC-Integration:     8.907
   Time for K (COSX):    82.957
   Time for RI-J (Direct):     2.034
   Time for Sigma-Completion:     0.053
   Lowest Energy          :     0.024477747198
   Maximum Energy change  :     0.002023975911 (vector 1)
   Maximum residual norm  :     0.000470002963

                       ****Iteration   20****
   Time for densities:     0.090
   Time for XC-Integration:     9.097
   Time for K (COSX):    83.070
   Time for RI-J (Direct):     2.003
   Time for Sigma-Completion:     0.049
   Lowest Energy          :     0.024074733507
   Maximum Energy change  :     0.000403013692 (vector 0)
   Maximum residual norm  :     0.000143303067

                       ****Iteration   21****
   Time for densities:     0.061
   Time for XC-Integration:     8.922
   Time for K (COSX):    83.160
   Time for RI-J (Direct):     2.102
   Time for Sigma-Completion:     0.042
   Lowest Energy          :     0.023926481356
   Maximum Energy change  :     0.000148252150 (vector 0)
   Maximum residual norm  :     0.000020841725

                       ****Iteration   22****
   Time for densities:     0.057
   Time for XC-Integration:     9.103
   Time for K (COSX):    83.183
   Time for RI-J (Direct):     2.085
   Time for Sigma-Completion:     0.042
   Lowest Energy          :     0.023908013809
   Maximum Energy change  :     0.000018467547 (vector 0)
   Maximum residual norm  :     0.000003171624

      *** CONVERGENCE OF RESIDUAL NORM REACHED ***

----------------------------- 
SCF STABILITY ANALYSIS RESULT 
----------------------------- 

UHF/UKS->UHF/UKS - singlet - internal

   Root    Eigenvalue (au) 
     0       0.023908 
     1       0.027401 
     2       0.034645 

Stability Analysis indicates a stable HF/KS wave function.


Total time for performing the stability analysis:  2152.022sec

Old exchange energy                            =    -25.127475681 Eh
New exchange energy                            =    -25.127493582 Eh
Exchange energy change after final integration =     -0.000017901 Eh
Total energy after final integration           =   -916.075896701 Eh
Final COS-X integration done in                =    23.912 sec

----------------
TOTAL SCF ENERGY
----------------

Total Energy       :         -916.07589670 Eh          -24927.69245 eV

Components:
Nuclear Repulsion  :         1677.17622437 Eh           45638.28527 eV
Electronic Energy  :        -2593.25212107 Eh          -70565.97772 eV
One Electron Energy:        -4566.42099863 Eh         -124258.63256 eV
Two Electron Energy:         1973.16887757 Eh           53692.65484 eV
Max COSX asymmetry :            0.00000659 Eh               0.00018 eV

Virial components:
Potential Energy   :        -1828.97357700 Eh          -49768.90123 eV
Kinetic Energy     :          912.89768030 Eh           24841.20878 eV
Virial Ratio       :            2.00348146


DFT components:
N(Alpha)           :       74.000116271269 electrons
N(Beta)            :       74.000116163812 electrons
N(Total)           :      148.000232435081 electrons
E(X)               :     -100.020188206121 Eh       
E(C)               :       -5.989210461792 Eh       
E(XC)              :     -106.009398667913 Eh       
DFET-embed. en.    :        0.000000000000 Eh       

---------------
SCF CONVERGENCE
---------------

  Last Energy change         ...    6.8166e-08  Tolerance :   1.0000e-06
  Last MAX-Density change    ...    2.7146e-01  Tolerance :   1.0000e-05
  Last RMS-Density change    ...    2.6511e-03  Tolerance :   1.0000e-06
  Last DIIS Error            ...    1.0685e-04  Tolerance :   1.0000e-06

             **** THE GBW FILE WAS UPDATED (Stone-Wales_defect_loss_eight.gbw) ****
             **** DENSITY Stone-Wales_defect_loss_eight.scfp WAS UPDATED ****
             **** ENERGY FILE WAS UPDATED (Stone-Wales_defect_loss_eight.en.tmp) ****
----------------------
UHF SPIN CONTAMINATION
----------------------

Warning: in a DFT calculation there is little theoretical justification to 
         calculate <S**2> as in Hartree-Fock theory. We will do it anyways
         but you should keep in mind that the values have only limited relevance

Expectation value of <S**2>     :     0.309428
Ideal value S*(S+1) for S=0.0   :     0.000000
Deviation                       :     0.309428

             **** THE GBW FILE WAS UPDATED (Stone-Wales_defect_loss_eight.gbw) ****
             **** DENSITY Stone-Wales_defect_loss_eight.scfp WAS UPDATED ****
----------------
ORBITAL ENERGIES
----------------
                 SPIN UP ORBITALS
  NO   OCC          E(Eh)            E(eV) 
   0   1.0000     -10.257764      -279.1279 
   1   1.0000     -10.257587      -279.1231 
   2   1.0000     -10.247286      -278.8428 
   3   1.0000     -10.247096      -278.8377 
   4   1.0000     -10.242395      -278.7097 
   5   1.0000     -10.240082      -278.6468 
   6   1.0000     -10.230755      -278.3930 
   7   1.0000     -10.230096      -278.3751 
   8   1.0000     -10.219676      -278.0915 
   9   1.0000     -10.219484      -278.0863 
  10   1.0000     -10.214526      -277.9514 
  11   1.0000     -10.214250      -277.9439 
  12   1.0000     -10.213815      -277.9320 
  13   1.0000     -10.213348      -277.9193 
  14   1.0000     -10.212929      -277.9079 
  15   1.0000     -10.211189      -277.8606 
  16   1.0000     -10.209551      -277.8160 
  17   1.0000     -10.209478      -277.8140 
  18   1.0000     -10.207319      -277.7553 
  19   1.0000     -10.207225      -277.7527 
  20   1.0000     -10.206237      -277.7258 
  21   1.0000     -10.203584      -277.6536 
  22   1.0000     -10.203165      -277.6422 
  23   1.0000     -10.197092      -277.4770 
  24   1.0000      -0.950648       -25.8684 
  25   1.0000      -0.919286       -25.0151 
  26   1.0000      -0.899687       -24.4817 
  27   1.0000      -0.875716       -23.8294 
  28   1.0000      -0.850810       -23.1517 
  29   1.0000      -0.844498       -22.9799 
  30   1.0000      -0.815967       -22.2036 
  31   1.0000      -0.795103       -21.6358 
  32   1.0000      -0.779329       -21.2066 
  33   1.0000      -0.756705       -20.5910 
  34   1.0000      -0.744429       -20.2569 
  35   1.0000      -0.732433       -19.9305 
  36   1.0000      -0.684670       -18.6308 
  37   1.0000      -0.674292       -18.3484 
  38   1.0000      -0.657570       -17.8934 
  39   1.0000      -0.640641       -17.4327 
  40   1.0000      -0.594445       -16.1757 
  41   1.0000      -0.587476       -15.9860 
  42   1.0000      -0.583941       -15.8898 
  43   1.0000      -0.565246       -15.3811 
  44   1.0000      -0.543041       -14.7769 
  45   1.0000      -0.535153       -14.5622 
  46   1.0000      -0.529802       -14.4167 
  47   1.0000      -0.518369       -14.1055 
  48   1.0000      -0.493685       -13.4339 
  49   1.0000      -0.487832       -13.2746 
  50   1.0000      -0.470423       -12.8009 
  51   1.0000      -0.464174       -12.6308 
  52   1.0000      -0.451713       -12.2917 
  53   1.0000      -0.441982       -12.0269 
  54   1.0000      -0.440126       -11.9764 
  55   1.0000      -0.427250       -11.6261 
  56   1.0000      -0.414501       -11.2791 
  57   1.0000      -0.410488       -11.1700 
  58   1.0000      -0.408835       -11.1250 
  59   1.0000      -0.392628       -10.6839 
  60   1.0000      -0.381496       -10.3810 
  61   1.0000      -0.373494       -10.1633 
  62   1.0000      -0.358894        -9.7660 
  63   1.0000      -0.358242        -9.7483 
  64   1.0000      -0.311372        -8.4729 
  65   1.0000      -0.303161        -8.2494 
  66   1.0000      -0.302987        -8.2447 
  67   1.0000      -0.298594        -8.1251 
  68   1.0000      -0.295607        -8.0439 
  69   1.0000      -0.289781        -7.8853 
  70   1.0000      -0.289455        -7.8765 
  71   1.0000      -0.260178        -7.0798 
  72   1.0000      -0.250809        -6.8249 
  73   1.0000      -0.212573        -5.7844 
  74   0.0000      -0.125299        -3.4096 
  75   0.0000      -0.117746        -3.2040 
  76   0.0000      -0.111151        -3.0246 
  77   0.0000      -0.101424        -2.7599 
  78   0.0000      -0.096704        -2.6314 
  79   0.0000      -0.086843        -2.3631 
  80   0.0000      -0.081100        -2.2068 
  81   0.0000      -0.039885        -1.0853 
  82   0.0000       0.001022         0.0278 
  83   0.0000       0.008740         0.2378 
  84   0.0000       0.009552         0.2599 
  85   0.0000       0.018002         0.4899 
  86   0.0000       0.024658         0.6710 
  87   0.0000       0.029170         0.7938 
  88   0.0000       0.036596         0.9958 
  89   0.0000       0.040541         1.1032 
  90   0.0000       0.041040         1.1168 
  91   0.0000       0.043002         1.1701 
  92   0.0000       0.047276         1.2865 
  93   0.0000       0.050143         1.3645 
  94   0.0000       0.055363         1.5065 
  95   0.0000       0.057294         1.5590 
  96   0.0000       0.061243         1.6665 
  97   0.0000       0.066186         1.8010 
  98   0.0000       0.066873         1.8197 
  99   0.0000       0.070381         1.9152 
 100   0.0000       0.072318         1.9679 
 101   0.0000       0.080093         2.1794 
 102   0.0000       0.087257         2.3744 
 103   0.0000       0.087399         2.3782 
 104   0.0000       0.096299         2.6204 
 105   0.0000       0.098954         2.6927 
 106   0.0000       0.100037         2.7221 
 107   0.0000       0.101562         2.7636 
 108   0.0000       0.103126         2.8062 
 109   0.0000       0.109525         2.9803 
 110   0.0000       0.111418         3.0318 
 111   0.0000       0.120381         3.2757 
 112   0.0000       0.124067         3.3760 
 113   0.0000       0.128787         3.5045 
 114   0.0000       0.132581         3.6077 
 115   0.0000       0.134305         3.6546 
 116   0.0000       0.136708         3.7200 
 117   0.0000       0.138077         3.7573 
 118   0.0000       0.143311         3.8997 
 119   0.0000       0.145000         3.9457 
 120   0.0000       0.149741         4.0746 
 121   0.0000       0.151229         4.1152 
 122   0.0000       0.151519         4.1230 
 123   0.0000       0.160749         4.3742 
 124   0.0000       0.164054         4.4641 
 125   0.0000       0.167642         4.5618 
 126   0.0000       0.168870         4.5952 
 127   0.0000       0.174994         4.7618 
 128   0.0000       0.176342         4.7985 
 129   0.0000       0.179879         4.8948 
 130   0.0000       0.182520         4.9666 
 131   0.0000       0.184691         5.0257 
 132   0.0000       0.186655         5.0791 
 133   0.0000       0.187827         5.1110 
 134   0.0000       0.194792         5.3005 
 135   0.0000       0.195216         5.3121 
 136   0.0000       0.196796         5.3551 
 137   0.0000       0.197529         5.3750 
 138   0.0000       0.199565         5.4304 
 139   0.0000       0.203303         5.5322 
 140   0.0000       0.205550         5.5933 
 141   0.0000       0.208863         5.6834 
 142   0.0000       0.220725         6.0062 
 143   0.0000       0.221620         6.0306 
 144   0.0000       0.222695         6.0598 
 145   0.0000       0.223745         6.0884 
 146   0.0000       0.227521         6.1912 
 147   0.0000       0.228980         6.2309 
 148   0.0000       0.232682         6.3316 
 149   0.0000       0.236052         6.4233 
 150   0.0000       0.236145         6.4258 
 151   0.0000       0.238830         6.4989 
 152   0.0000       0.242105         6.5880 
 153   0.0000       0.245904         6.6914 
 154   0.0000       0.248539         6.7631 
 155   0.0000       0.250116         6.8060 
 156   0.0000       0.259202         7.0533 
 157   0.0000       0.261529         7.1166 
 158   0.0000       0.262962         7.1556 
 159   0.0000       0.268782         7.3139 
 160   0.0000       0.268900         7.3171 
 161   0.0000       0.276365         7.5203 
 162   0.0000       0.277449         7.5498 
 163   0.0000       0.281436         7.6583 
 164   0.0000       0.285882         7.7792 
 165   0.0000       0.289577         7.8798 
 166   0.0000       0.291179         7.9234 
 167   0.0000       0.291753         7.9390 
 168   0.0000       0.294990         8.0271 
 169   0.0000       0.297952         8.1077 
 170   0.0000       0.308992         8.4081 
 171   0.0000       0.309995         8.4354 
 172   0.0000       0.317991         8.6530 
 173   0.0000       0.319538         8.6951 
 174   0.0000       0.325562         8.8590 
 175   0.0000       0.332025         9.0349 
 176   0.0000       0.335665         9.1339 
 177   0.0000       0.348174         9.4743 
 178   0.0000       0.351125         9.5546 
 179   0.0000       0.354714         9.6523 
 180   0.0000       0.360564         9.8114 
 181   0.0000       0.364665         9.9230 
 182   0.0000       0.372426        10.1342 
 183   0.0000       0.378382        10.2963 
 184   0.0000       0.381114        10.3706 
 185   0.0000       0.382951        10.4206 
 186   0.0000       0.397000        10.8029 
 187   0.0000       0.401437        10.9237 
 188   0.0000       0.402806        10.9609 
 189   0.0000       0.414579        11.2813 
 190   0.0000       0.422470        11.4960 
 191   0.0000       0.423719        11.5300 
 192   0.0000       0.435251        11.8438 
 193   0.0000       0.438759        11.9392 
 194   0.0000       0.445094        12.1116 
 195   0.0000       0.457494        12.4490 
 196   0.0000       0.473740        12.8911 
 197   0.0000       0.477208        12.9855 
 198   0.0000       0.489716        13.3259 
 199   0.0000       0.495736        13.4897 
 200   0.0000       0.497720        13.5437 
 201   0.0000       0.509775        13.8717 
 202   0.0000       0.517266        14.0755 
 203   0.0000       0.518259        14.1026 
 204   0.0000       0.518805        14.1174 
 205   0.0000       0.518814        14.1176 
 206   0.0000       0.536652        14.6031 
 207   0.0000       0.540096        14.6967 
 208   0.0000       0.541850        14.7445 
 209   0.0000       0.549010        14.9393 
 210   0.0000       0.550201        14.9717 
 211   0.0000       0.552978        15.0473 
 212   0.0000       0.559914        15.2360 
 213   0.0000       0.561101        15.2683 
 214   0.0000       0.561898        15.2900 
 215   0.0000       0.579265        15.7626 
 216   0.0000       0.579970        15.7818 
 217   0.0000       0.580302        15.7908 
 218   0.0000       0.585544        15.9335 
 219   0.0000       0.586550        15.9608 
 220   0.0000       0.591889        16.1061 
 221   0.0000       0.592493        16.1226 
 222   0.0000       0.595491        16.2041 
 223   0.0000       0.600131        16.3304 
 224   0.0000       0.603953        16.4344 
 225   0.0000       0.605634        16.4801 
 226   0.0000       0.609640        16.5892 
 227   0.0000       0.611636        16.6435 
 228   0.0000       0.619170        16.8485 
 229   0.0000       0.621999        16.9254 
 230   0.0000       0.622132        16.9291 
 231   0.0000       0.632737        17.2177 
 232   0.0000       0.639057        17.3896 
 233   0.0000       0.646434        17.5904 
 234   0.0000       0.651193        17.7199 
 235   0.0000       0.658252        17.9119 
 236   0.0000       0.661607        18.0032 
 237   0.0000       0.662005        18.0141 
 238   0.0000       0.663517        18.0552 
 239   0.0000       0.666055        18.1243 
 240   0.0000       0.672099        18.2887 
 241   0.0000       0.680781        18.5250 
 242   0.0000       0.687002        18.6943 
 243   0.0000       0.692233        18.8366 
 244   0.0000       0.693202        18.8630 
 245   0.0000       0.702363        19.1123 
 246   0.0000       0.703113        19.1327 
 247   0.0000       0.703842        19.1525 
 248   0.0000       0.712682        19.3931 
 249   0.0000       0.712999        19.4017 
 250   0.0000       0.718444        19.5499 
 251   0.0000       0.721150        19.6235 
 252   0.0000       0.726206        19.7611 
 253   0.0000       0.728680        19.8284 
 254   0.0000       0.730699        19.8833 
 255   0.0000       0.733107        19.9489 
 256   0.0000       0.744482        20.2584 
 257   0.0000       0.764241        20.7961 
 258   0.0000       0.770721        20.9724 
 259   0.0000       0.776094        21.1186 
 260   0.0000       0.778560        21.1857 
 261   0.0000       0.787663        21.4334 
 262   0.0000       0.803362        21.8606 
 263   0.0000       0.805530        21.9196 
 264   0.0000       0.831637        22.6300 
 265   0.0000       0.865293        23.5458 
 266   0.0000       0.871468        23.7139 
 267   0.0000       0.875597        23.8262 
 268   0.0000       0.881001        23.9733 
 269   0.0000       0.897705        24.4278 
 270   0.0000       0.904082        24.6013 
 271   0.0000       0.909838        24.7579 
 272   0.0000       0.917827        24.9753 
 273   0.0000       0.919014        25.0077 
 274   0.0000       0.929125        25.2828 
 275   0.0000       0.933298        25.3963 
 276   0.0000       0.933642        25.4057 
 277   0.0000       0.935995        25.4697 
 278   0.0000       0.947522        25.7834 
 279   0.0000       0.948309        25.8048 
 280   0.0000       0.952207        25.9109 
 281   0.0000       0.958487        26.0817 
 282   0.0000       0.962206        26.1830 
 283   0.0000       0.968193        26.3459 
 284   0.0000       0.972285        26.4572 
 285   0.0000       0.976067        26.5601 
 286   0.0000       0.980086        26.6695 
 287   0.0000       0.994353        27.0577 
 288   0.0000       0.998009        27.1572 
 289   0.0000       1.006294        27.3826 
 290   0.0000       1.009746        27.4766 
 291   0.0000       1.010481        27.4966 
 292   0.0000       1.018045        27.7024 
 293   0.0000       1.025713        27.9111 
 294   0.0000       1.044800        28.4304 
 295   0.0000       1.049242        28.5513 
 296   0.0000       1.049972        28.5712 
 297   0.0000       1.057766        28.7833 
 298   0.0000       1.072656        29.1885 
 299   0.0000       1.079932        29.3864 
 300   0.0000       1.080133        29.3919 
 301   0.0000       1.087838        29.6016 
 302   0.0000       1.088780        29.6272 
 303   0.0000       1.113206        30.2919 
 304   0.0000       1.114488        30.3268 
 305   0.0000       1.119714        30.4690 
 306   0.0000       1.134138        30.8615 
 307   0.0000       1.136441        30.9241 
 308   0.0000       1.151039        31.3214 
 309   0.0000       1.151412        31.3315 
 310   0.0000       1.151502        31.3340 
 311   0.0000       1.169921        31.8352 
 312   0.0000       1.186452        32.2850 
 313   0.0000       1.203863        32.7588 
 314   0.0000       1.215692        33.0807 
 315   0.0000       1.218790        33.1650 
 316   0.0000       1.229326        33.4517 
 317   0.0000       1.235359        33.6158 
 318   0.0000       1.239221        33.7209 
 319   0.0000       1.239364        33.7248 
 320   0.0000       1.250776        34.0353 
 321   0.0000       1.253734        34.1158 
 322   0.0000       1.260395        34.2971 
 323   0.0000       1.269786        34.5526 
 324   0.0000       1.303279        35.4640 
 325   0.0000       1.326037        36.0833 
 326   0.0000       1.326190        36.0875 
 327   0.0000       1.378731        37.5172 
 328   0.0000       1.392013        37.8786 
 329   0.0000       1.416696        38.5503 
 330   0.0000       1.442812        39.2609 
 331   0.0000       1.444940        39.3188 
 332   0.0000       1.451678        39.5022 
 333   0.0000       1.452742        39.5311 
 334   0.0000       1.485771        40.4299 
 335   0.0000       1.486840        40.4590 
 336   0.0000       1.494624        40.6708 
 337   0.0000       1.507622        41.0245 
 338   0.0000       1.516381        41.2628 
 339   0.0000       1.521417        41.3999 
 340   0.0000       1.539226        41.8845 
 341   0.0000       1.539392        41.8890 
 342   0.0000       1.552794        42.2537 
 343   0.0000       1.564897        42.5830 
 344   0.0000       1.582200        43.0538 
 345   0.0000       1.587211        43.1902 
 346   0.0000       1.604542        43.6618 
 347   0.0000       1.605818        43.6965 
 348   0.0000       1.615771        43.9674 
 349   0.0000       1.640789        44.6481 
 350   0.0000       1.650997        44.9259 
 351   0.0000       1.666844        45.3571 
 352   0.0000       1.678440        45.6727 
 353   0.0000       1.682028        45.7703 
 354   0.0000       1.687933        45.9310 
 355   0.0000       1.697500        46.1913 
 356   0.0000       1.711176        46.5635 
 357   0.0000       1.722091        46.8605 
 358   0.0000       1.731217        47.1088 
 359   0.0000       1.734068        47.1864 
 360   0.0000       1.737438        47.2781 
 361   0.0000       1.737897        47.2906 
 362   0.0000       1.769577        48.1526 
 363   0.0000       1.774780        48.2942 
 364   0.0000       1.775288        48.3080 
 365   0.0000       1.825671        49.6790 
 366   0.0000       1.826551        49.7030 
 367   0.0000       1.828809        49.7644 
 368   0.0000       1.833235        49.8849 
 369   0.0000       1.838168        50.0191 
 370   0.0000       1.846067        50.2340 
 371   0.0000       1.850553        50.3561 
 372   0.0000       1.866924        50.8016 
 373   0.0000       1.868126        50.8343 
 374   0.0000       1.872231        50.9460 
 375   0.0000       1.898201        51.6527 
 376   0.0000       1.904198        51.8159 
 377   0.0000       1.917916        52.1892 
 378   0.0000       1.931792        52.5667 
 379   0.0000       1.947150        52.9846 
 380   0.0000       1.961895        53.3859 
 381   0.0000       1.963628        53.4330 
 382   0.0000       1.969947        53.6050 
 383   0.0000       1.980205        53.8841 
 384   0.0000       1.997900        54.3656 
 385   0.0000       1.999208        54.4012 
 386   0.0000       2.004651        54.5493 
 387   0.0000       2.010412        54.7061 
 388   0.0000       2.022048        55.0227 
 389   0.0000       2.031001        55.2663 
 390   0.0000       2.037165        55.4341 
 391   0.0000       2.041683        55.5570 
 392   0.0000       2.051183        55.8155 
 393   0.0000       2.076970        56.5172 
 394   0.0000       2.077531        56.5325 
 395   0.0000       2.082644        56.6716 
 396   0.0000       2.107749        57.3548 
 397   0.0000       2.110738        57.4361 
 398   0.0000       2.122502        57.7562 
 399   0.0000       2.151819        58.5540 
 400   0.0000       2.158065        58.7239 
 401   0.0000       2.160027        58.7773 
 402   0.0000       2.188885        59.5626 
 403   0.0000       2.209016        60.1104 
 404   0.0000       2.245998        61.1167 
 405   0.0000       2.250309        61.2340 
 406   0.0000       2.259030        61.4713 
 407   0.0000       2.279278        62.0223 
 408   0.0000       2.294226        62.4291 
 409   0.0000       2.301824        62.6358 
 410   0.0000       2.337139        63.5968 
 411   0.0000       2.349023        63.9202 
 412   0.0000       2.349667        63.9377 
 413   0.0000       2.357262        64.1444 
 414   0.0000       2.393820        65.1392 
 415   0.0000       2.433717        66.2248 
 416   0.0000       2.435465        66.2724 
 417   0.0000       2.439214        66.3744 
 418   0.0000       2.457262        66.8655 
 419   0.0000       2.465045        67.0773 
 420   0.0000       2.478670        67.4480 
 421   0.0000       2.483846        67.5889 
 422   0.0000       2.529652        68.8353 
 423   0.0000       2.535299        68.9890 
 424   0.0000       2.575739        70.0894 
 425   0.0000       2.577148        70.1278 
 426   0.0000       2.585146        70.3454 
 427   0.0000       2.615834        71.1805 
 428   0.0000       2.626223        71.4631 
 429   0.0000       2.632315        71.6289 
 430   0.0000       2.639270        71.8182 
 431   0.0000       2.645540        71.9888 
 432   0.0000       2.646459        72.0138 
 433   0.0000       2.678695        72.8910 
 434   0.0000       2.689147        73.1754 
 435   0.0000       2.695545        73.3495 
 436   0.0000       2.704363        73.5895 
 437   0.0000       2.704617        73.5964 
 438   0.0000       2.717288        73.9412 
 439   0.0000       2.719597        74.0040 
 440   0.0000       2.721229        74.0484 
 441   0.0000       2.754805        74.9621 
 442   0.0000       2.759676        75.0946 
 443   0.0000       2.779811        75.6425 
 444   0.0000       2.790565        75.9351 
 445   0.0000       2.809619        76.4536 
 446   0.0000       2.811873        76.5150 
 447   0.0000       2.814604        76.5893 
 448   0.0000       2.817187        76.6596 
 449   0.0000       2.857354        77.7525 
 450   0.0000       2.861625        77.8688 
 451   0.0000       2.869085        78.0718 
 452   0.0000       2.897572        78.8470 
 453   0.0000       2.905114        79.0522 
 454   0.0000       2.924131        79.5697 
 455   0.0000       2.936173        79.8973 
 456   0.0000       2.942958        80.0820 
 457   0.0000       2.946097        80.1674 
 458   0.0000       2.957422        80.4756 
 459   0.0000       2.969009        80.7909 
 460   0.0000       2.978879        81.0594 
 461   0.0000       2.986126        81.2566 
 462   0.0000       2.993266        81.4509 
 463   0.0000       2.996142        81.5292 
 464   0.0000       3.010067        81.9081 
 465   0.0000       3.017586        82.1127 
 466   0.0000       3.023938        82.2855 
 467   0.0000       3.051115        83.0251 
 468   0.0000       3.053756        83.0969 
 469   0.0000       3.076944        83.7279 
 470   0.0000       3.095329        84.2282 
 471   0.0000       3.098639        84.3182 
 472   0.0000       3.142581        85.5140 
 473   0.0000       3.143935        85.5508 
 474   0.0000       3.168114        86.2088 
 475   0.0000       3.195239        86.9469 
 476   0.0000       3.246693        88.3470 
 477   0.0000       3.258798        88.6764 
 478   0.0000       3.267198        88.9050 
 479   0.0000       3.282992        89.3348 
 480   0.0000       3.288835        89.4937 
 481   0.0000       3.294895        89.6587 
 482   0.0000       3.347364        91.0864 
 483   0.0000       3.361348        91.4669 
 484   0.0000       3.364904        91.5637 
 485   0.0000       3.383253        92.0630 
 486   0.0000       3.389565        92.2348 
 487   0.0000       3.397891        92.4613 
 488   0.0000       3.442836        93.6843 
 489   0.0000       3.449413        93.8633 
 490   0.0000       3.495195        95.1091 
 491   0.0000       3.495801        95.1256 
 492   0.0000       3.544070        96.4391 
 493   0.0000       3.545454        96.4767 
 494   0.0000       3.563933        96.9796 
 495   0.0000       3.567698        97.0820 
 496   0.0000       3.634660        98.9041 
 497   0.0000       3.653604        99.4196 
 498   0.0000       3.654279        99.4380 
 499   0.0000       3.734046       101.6086 
 500   0.0000       3.772032       102.6422 
 501   0.0000       3.778033       102.8055 
 502   0.0000       3.796851       103.3176 
 503   0.0000       3.959259       107.7369 
 504   0.0000       4.019042       109.3637 
 505   0.0000       4.042879       110.0123 
 506   0.0000       4.067072       110.6707 
 507   0.0000       4.161242       113.2331 
 508   0.0000       4.221164       114.8637 
 509   0.0000       4.375208       119.0555 
 510   0.0000       4.442494       120.8864 
 511   0.0000       4.575855       124.5153 
 512   0.0000       4.679401       127.3330 
 513   0.0000       4.699083       127.8686 
 514   0.0000       4.746051       129.1466 
 515   0.0000       4.795387       130.4891 
 516   0.0000       4.846176       131.8712 
 517   0.0000       4.872628       132.5909 
 518   0.0000      23.198888       631.2738 
 519   0.0000      23.445972       637.9973 
 520   0.0000      23.503911       639.5739 
 521   0.0000      23.597615       642.1238 
 522   0.0000      23.664700       643.9492 
 523   0.0000      23.757082       646.4631 
 524   0.0000      23.776472       646.9907 
 525   0.0000      23.817242       648.1001 
 526   0.0000      23.895054       650.2175 
 527   0.0000      23.945697       651.5955 
 528   0.0000      23.961542       652.0267 
 529   0.0000      23.989108       652.7768 
 530   0.0000      24.004445       653.1942 
 531   0.0000      24.007730       653.2835 
 532   0.0000      24.031333       653.9258 
 533   0.0000      24.032681       653.9625 
 534   0.0000      24.051603       654.4774 
 535   0.0000      24.094777       655.6522 
 536   0.0000      24.171506       657.7401 
 537   0.0000      24.183533       658.0674 
 538   0.0000      24.547188       667.9629 
 539   0.0000      24.578468       668.8141 
 540   0.0000      24.628959       670.1880 
 541   0.0000      24.633243       670.3046 
 542   0.0000       0.000000         0.0000 
 543   0.0000       0.000000         0.0000 
 544   0.0000       0.000000         0.0000 
 545   0.0000       0.000000         0.0000 
 546   0.0000       0.000000         0.0000 
 547   0.0000       0.000000         0.0000 
 548   0.0000       0.000000         0.0000 
 549   0.0000       0.000000         0.0000 
 550   0.0000       0.000000         0.0000 
 551   0.0000       0.000000         0.0000 

                 SPIN DOWN ORBITALS
  NO   OCC          E(Eh)            E(eV) 
   0   1.0000     -10.257745      -279.1274 
   1   1.0000     -10.257606      -279.1236 
   2   1.0000     -10.247278      -278.8426 
   3   1.0000     -10.247104      -278.8379 
   4   1.0000     -10.242395      -278.7097 
   5   1.0000     -10.240082      -278.6468 
   6   1.0000     -10.230749      -278.3928 
   7   1.0000     -10.230102      -278.3752 
   8   1.0000     -10.219662      -278.0911 
   9   1.0000     -10.219498      -278.0867 
  10   1.0000     -10.214531      -277.9515 
  11   1.0000     -10.214245      -277.9437 
  12   1.0000     -10.213815      -277.9320 
  13   1.0000     -10.213347      -277.9193 
  14   1.0000     -10.212931      -277.9080 
  15   1.0000     -10.211187      -277.8605 
  16   1.0000     -10.209547      -277.8159 
  17   1.0000     -10.209480      -277.8141 
  18   1.0000     -10.207300      -277.7548 
  19   1.0000     -10.207247      -277.7533 
  20   1.0000     -10.206252      -277.7262 
  21   1.0000     -10.203575      -277.6534 
  22   1.0000     -10.203174      -277.6425 
  23   1.0000     -10.197077      -277.4766 
  24   1.0000      -0.950648       -25.8684 
  25   1.0000      -0.919287       -25.0151 
  26   1.0000      -0.899687       -24.4817 
  27   1.0000      -0.875716       -23.8294 
  28   1.0000      -0.850810       -23.1517 
  29   1.0000      -0.844498       -22.9800 
  30   1.0000      -0.815968       -22.2036 
  31   1.0000      -0.795102       -21.6358 
  32   1.0000      -0.779330       -21.2067 
  33   1.0000      -0.756705       -20.5910 
  34   1.0000      -0.744429       -20.2569 
  35   1.0000      -0.732432       -19.9305 
  36   1.0000      -0.684669       -18.6308 
  37   1.0000      -0.674291       -18.3484 
  38   1.0000      -0.657572       -17.8934 
  39   1.0000      -0.640641       -17.4327 
  40   1.0000      -0.594447       -16.1757 
  41   1.0000      -0.587468       -15.9858 
  42   1.0000      -0.583944       -15.8899 
  43   1.0000      -0.565246       -15.3811 
  44   1.0000      -0.543041       -14.7769 
  45   1.0000      -0.535153       -14.5623 
  46   1.0000      -0.529802       -14.4166 
  47   1.0000      -0.518371       -14.1056 
  48   1.0000      -0.493685       -13.4338 
  49   1.0000      -0.487834       -13.2746 
  50   1.0000      -0.470423       -12.8009 
  51   1.0000      -0.464174       -12.6308 
  52   1.0000      -0.451713       -12.2917 
  53   1.0000      -0.441982       -12.0269 
  54   1.0000      -0.440124       -11.9764 
  55   1.0000      -0.427250       -11.6261 
  56   1.0000      -0.414501       -11.2792 
  57   1.0000      -0.410497       -11.1702 
  58   1.0000      -0.408827       -11.1248 
  59   1.0000      -0.392628       -10.6839 
  60   1.0000      -0.381496       -10.3810 
  61   1.0000      -0.373497       -10.1634 
  62   1.0000      -0.358894        -9.7660 
  63   1.0000      -0.358242        -9.7483 
  64   1.0000      -0.311371        -8.4728 
  65   1.0000      -0.303162        -8.2494 
[...]
 761   69890.1    143.1     -0.00141   0.17258   0.10237   0.00013
 762   69911.8    143.0     -0.00004  -0.00322   0.00663   0.00001
 763   69925.2    143.0     -0.00267   0.06598   0.03978   0.00011
 764   69940.4    143.0      0.00404   0.00003   0.00024  -0.23350
 765   70012.3    142.8     -0.00030  -0.03169  -0.01872  -0.00000
 766   70022.2    142.8     -0.00014  -0.00752   0.01100  -0.00000
 767   70093.0    142.7     -0.00008  -0.00001  -0.00001   0.00144
 768   70098.3    142.7     -0.00057   0.00992  -0.01488  -0.00002
 769   70109.3    142.6      0.00098   0.00001  -0.00002  -0.00037
 770   70147.0    142.6     -0.00883   0.00006   0.00001   0.05138
 771   70180.8    142.5      0.01102  -0.14316  -0.08670  -0.00007
 772   70184.1    142.5      0.00011   0.01007  -0.01048  -0.00002
 773   70237.0    142.4      0.00131   0.00001  -0.00003  -0.00376
 774   70244.4    142.4     -0.00016  -0.04776  -0.02516  -0.00003
 775   70248.0    142.4     -0.00212  -0.03118   0.05827   0.00004
 776   70302.4    142.2      0.00002   0.00001  -0.00000   0.00101
 777   70344.6    142.2      0.00036  -0.00000  -0.00005   0.02890
 778   70380.8    142.1     -0.00129  -0.00001  -0.00000  -0.02239
 779   70436.2    142.0     -0.00002  -0.00003  -0.00001  -0.00152
 780   70437.2    142.0     -0.00163  -0.07952  -0.04549  -0.00010
 781   70490.0    141.9      0.00000  -0.00047   0.00136  -0.00002
 782   70521.0    141.8      0.00055  -0.00001  -0.00014   0.13019
 783   70560.7    141.7     -0.00043  -0.00001   0.00000  -0.00941
 784   70587.3    141.7      0.00074   0.00000   0.00016  -0.15575
 785   70621.6    141.6     -0.00019   0.00003   0.00003  -0.00957
 786   70643.5    141.6     -0.00062   0.22810   0.13397   0.00014
 787   70687.1    141.5     -0.00006  -0.00006  -0.00004   0.00054
 788   70692.3    141.5     -0.00040   0.00003   0.00001   0.00585
 789   70715.0    141.4      0.00014   0.00251   0.01465   0.00004
 790   70782.0    141.3     -0.00145   0.00004  -0.00012   0.15664
 791   70786.5    141.3      0.00023   0.00216   0.01211  -0.00017
 792   70807.1    141.2      0.00291   0.12178   0.07315   0.00003
 793   70869.7    141.1     -0.00202  -0.00005  -0.00008   0.04073
 794   70873.5    141.1     -0.00103  -0.02928  -0.01859  -0.00012
 795   70885.5    141.1     -0.00027   0.00001  -0.00000   0.00261
 796   70931.3    141.0      0.00161  -0.00004  -0.00031   0.30133
 797   70942.5    141.0      0.00029  -0.09009  -0.05339  -0.00015
 798   70976.6    140.9     -0.00103   0.03499   0.01941  -0.00001
 799   71033.6    140.8      0.00109  -0.01616  -0.00378   0.00001
 800   71034.7    140.8     -0.00012  -0.00004  -0.00003   0.00300
 801   71077.2    140.7     -0.00014  -0.00790   0.01608   0.00013
 802   71112.8    140.6      0.00227   0.00004  -0.00022   0.25122
 803   71125.8    140.6     -0.00048   0.05991   0.04118  -0.00008
 804   71155.8    140.5     -0.00020   0.02921  -0.01066  -0.00002
 805   71168.7    140.5      0.00004   0.00547   0.00687  -0.00001
 806   71233.0    140.4     -0.00152   0.09580  -0.16867  -0.00015
 807   71307.7    140.2     -0.00004   0.01368  -0.02500  -0.00011
 808   71326.9    140.2      0.00068   0.00006  -0.00062   0.57316
 809   71403.0    140.1      0.00004  -0.00740   0.01128   0.00008
 810   71412.6    140.0     -0.00034  -0.00515  -0.00377  -0.00006
 811   71467.0    139.9     -0.19445  -0.00786   0.00570  -0.09289
 812   71467.2    139.9      0.19539   0.11073  -0.07895  -0.00686
 813   71497.2    139.9      0.00754   0.00006   0.00012  -0.10665
 814   71503.4    139.9     -0.00563  -0.03509  -0.07328  -0.00018
 815   71531.7    139.8      0.00041   0.02551  -0.00552   0.00002
 816   71539.4    139.8      0.01760  -0.13355  -0.09965  -0.00000
 817   71542.1    139.8     -0.01893   0.00045   0.00033   0.00194
 818   71555.7    139.8     -0.00101  -0.00002   0.00000  -0.01220
 819   71596.4    139.7     -0.00058   0.00001  -0.00000   0.00206
 820   71609.6    139.6     -0.00038   0.02520   0.01591  -0.00002
 821   71671.4    139.5     -0.00019   0.00001   0.00002  -0.00860
 822   71711.6    139.4      0.00188  -0.04221   0.00816   0.00009
 823   71712.5    139.4      0.00410  -0.02814  -0.04295   0.00004
 824   71732.8    139.4      0.00364   0.00002   0.00026  -0.26117
 825   71740.5    139.4     -0.00271  -0.00001   0.00017  -0.16109
 826   71746.3    139.4      0.00019   0.00002   0.00006  -0.06546
 827   71781.7    139.3     -0.00140  -0.00002  -0.00030   0.30558
 828   71807.6    139.3     -0.00314  -0.07421  -0.04620  -0.00021
 829   71855.8    139.2     -0.00100  -0.00001   0.00001   0.01081
 830   71869.1    139.1     -0.00033  -0.00002   0.00000   0.00460
 831   71916.6    139.1      0.00019  -0.01544   0.02845   0.00008
 832   71993.5    138.9      0.00015  -0.03398  -0.01983  -0.00000
 833   72000.4    138.9      0.00055  -0.00002  -0.00003   0.00833
 834   72008.5    138.9      0.00029   0.00010   0.00007   0.00036
 835   72009.2    138.9     -0.00042   0.01545   0.01089   0.00002
 836   72057.8    138.8      0.00329  -0.04152   0.10466   0.00008
 837   72060.3    138.8      0.00035  -0.05960   0.05650   0.00002
 838   72086.8    138.7      0.00148  -0.00002  -0.00002   0.03236
 839   72093.9    138.7     -0.00324   0.00001  -0.00002   0.03399
 840   72168.0    138.6      0.01449  -0.00012   0.00023   0.00520
 841   72169.9    138.6     -0.01931  -0.06376   0.10860   0.00007
 842   72231.7    138.4      0.00379   0.14057  -0.23040  -0.00020
 843   72265.6    138.4     -0.00014  -0.00001   0.00010  -0.07174
 844   72268.2    138.4      0.00000  -0.00000  -0.00001   0.00807
 845   72336.4    138.2     -0.00617   0.00001  -0.00050   0.52579
 846   72377.7    138.2     -0.00038   0.00002   0.00001  -0.02996
 847   72409.9    138.1     -0.00037   0.00002  -0.00003   0.01257
 848   72454.4    138.0     -0.00004   0.00001  -0.00002   0.02612
 849   72525.4    137.9     -0.00024   0.00000  -0.00016   0.14913
 850   72545.2    137.8     -0.00016  -0.00005  -0.00007   0.04203
 851   72548.4    137.8      0.00006  -0.04427  -0.02529  -0.00006
 852   72594.8    137.8     -0.00228   0.00000   0.00051  -0.49681
 853   72614.1    137.7      0.00339  -0.00002   0.00035  -0.35472
 854   72633.6    137.7     -0.00029  -0.02056   0.03777   0.00006
 855   72673.9    137.6      0.00013   0.00481  -0.01028  -0.00003
 856   72716.4    137.5      0.00009   0.00001  -0.00001   0.01121
 857   72736.9    137.5      0.00009  -0.01241  -0.00673   0.00004
 858   72767.9    137.4      0.00048  -0.00022  -0.00015   0.00336
 859   72773.3    137.4      0.00048  -0.12380  -0.07018  -0.00008
 860   72789.9    137.4      0.00063  -0.03250   0.05368   0.00018
 861   72791.6    137.4     -0.00055  -0.00008  -0.00004   0.01602
 862   72799.9    137.4     -0.00329  -0.00002   0.00024  -0.11340
 863   72806.2    137.4      0.00296  -0.01195  -0.00765  -0.00015
 864   72881.4    137.2     -0.00250   0.00002  -0.00004   0.02773
 865   72899.2    137.2      0.00038  -0.00003  -0.00068   0.63984
 866   73017.0    137.0     -0.00088  -0.10750  -0.06126  -0.00012
 867   73030.0    136.9     -0.00186  -0.29570  -0.17522  -0.00019
 868   73062.2    136.9      0.00019   0.02034   0.05340   0.00008
 869   73115.5    136.8     -0.00109  -0.01356   0.06723   0.00011
 870   73132.2    136.7     -0.00450  -0.00010   0.00009  -0.07959
 871   73136.1    136.7      0.00530  -0.03837   0.00026   0.00024
 872   73169.1    136.7      0.00148   0.00004  -0.00007  -0.00017
 873   73175.4    136.7     -0.00149   0.03891  -0.08464  -0.00005
 874   73231.6    136.6     -0.00440   0.05608  -0.09211  -0.00007
 875   73263.2    136.5      0.00076   0.02395  -0.02605  -0.00008
 876   73273.5    136.5      0.00175   0.00003   0.00003   0.00295
 877   73278.1    136.5      0.00085   0.00001   0.00010  -0.11373
 878   73289.4    136.4      0.00212   0.03813  -0.01254  -0.00008
 879   73320.0    136.4      0.00033   0.00000  -0.00008   0.07019
 880   73352.4    136.3     -0.00093  -0.06684   0.03542  -0.00004
 881   73354.7    136.3      0.00602   0.00009   0.00007  -0.09975
 882   73364.6    136.3      0.00063   0.00001  -0.00006   0.01320
 883   73368.7    136.3     -0.00203   0.00992   0.02891   0.00012
 884   73385.2    136.3      0.00319  -0.12740  -0.01448   0.00003
 885   73404.9    136.2     -0.00625  -0.00675  -0.12456  -0.00021
 886   73410.7    136.2      0.00052  -0.20821   0.05344  -0.00003
 887   73412.8    136.2     -0.00113  -0.00010  -0.00006   0.02515
 888   73424.1    136.2      0.00049   0.00003   0.00001  -0.00762
 889   73441.9    136.2     -0.00061   0.00001   0.00017  -0.14450
 890   73463.1    136.1     -0.00159   0.01734  -0.02565  -0.00004
 891   73470.9    136.1     -0.00612   0.00008  -0.00010  -0.00972
 892   73500.1    136.1      0.00060   0.00001   0.00002  -0.06135
 893   73521.2    136.0      0.00087   0.11025  -0.13639  -0.00014
 894   73542.0    136.0      0.00706   0.10225  -0.28489  -0.00026
 895   73599.5    135.9     -0.00348   0.12443  -0.31682  -0.00034
 896   73627.3    135.8      0.00019   0.00439  -0.01246  -0.00003
 897   73634.2    135.8      0.01425   0.17168  -0.13444  -0.00008
 898   73638.2    135.8     -0.01059   0.00042  -0.00032  -0.00038
 899   73649.4    135.8     -0.00371  -0.13100   0.31897   0.00040
 900   73714.7    135.7     -0.00024  -0.02883   0.06190   0.00009
 901   73742.7    135.6     -0.00018  -0.01073  -0.04359  -0.00004
 902   73827.2    135.5      0.00213   0.06240  -0.11315  -0.00018
 903   73827.7    135.5     -0.00149   0.00014  -0.00031   0.04732
 904   73835.7    135.4     -0.00346  -0.00033   0.00055   0.09311
 905   73836.9    135.4      0.00286  -0.02502   0.04672  -0.00117
 906   73859.8    135.4      0.00040   0.00244  -0.03191   0.00001
 907   73921.9    135.3      0.00320  -0.09775   0.17941  -0.00018
 908   73924.4    135.3      0.00002  -0.00009  -0.00014   0.30525
 909   73939.8    135.2      0.00242  -0.11092  -0.06721  -0.00003
 910   73959.5    135.2      0.01776   0.00021  -0.00041   0.03700
 911   73964.1    135.2     -0.01713  -0.08275   0.13489   0.00023
 912   73994.8    135.1     -0.00060  -0.11442   0.18123   0.00037
 913   74009.8    135.1      0.00229   0.00006  -0.00031   0.20241
 914   74018.9    135.1     -0.00364   0.06828   0.03751   0.00011
 915   74062.4    135.0     -0.00053   0.00002   0.00008   0.00373
 916   74095.6    135.0      0.00042  -0.00009  -0.00008  -0.00695
 917   74103.2    134.9     -0.00426  -0.14136  -0.08393  -0.00012
 918   74114.9    134.9      0.00147   0.00010   0.00007  -0.02763
 919   74142.0    134.9      0.00256  -0.13854   0.25037   0.00022
 920   74203.9    134.8     -0.00005   0.00277  -0.00750  -0.00001
 921   74235.1    134.7     -0.00351  -0.00005   0.00004   0.00303
 922   74254.5    134.7      0.00060   0.00003   0.00004  -0.02774
 923   74264.2    134.7     -0.00159   0.01160  -0.02566  -0.00002
 924   74281.0    134.6      0.00676  -0.00001  -0.00006  -0.00062
 925   74317.3    134.6      0.00047   0.00862  -0.01290  -0.00001
 926   74388.8    134.4     -0.00002  -0.00401  -0.00403  -0.00001
 927   74409.8    134.4     -0.00156   0.35286   0.19266   0.00022
 928   74443.8    134.3     -0.00123  -0.07637  -0.04456  -0.00003
 929   74465.1    134.3     -0.00006  -0.00003   0.00000  -0.01689
 930   74472.5    134.3      0.00337   0.00010   0.00036  -0.24357
 931   74568.0    134.1     -0.00011   0.01674  -0.01998   0.00002
 932   74602.1    134.0     -0.00221  -0.29366  -0.17209  -0.00013
 933   74609.0    134.0     -0.00004  -0.01910   0.00094  -0.00004
 934   74690.5    133.9      0.00677   0.00005  -0.00044   0.46791
 935   74699.2    133.9     -0.00002  -0.00003  -0.00002  -0.00491
 936   74723.0    133.8      0.00959   0.00420   0.00532  -0.00055
 937   74725.3    133.8     -0.00771   0.00001  -0.00019   0.20181
 938   74761.1    133.8     -0.00419   0.04764   0.03181   0.00012
 939   74838.0    133.6     -0.00237  -0.00002  -0.00002  -0.00300
 940   74870.4    133.6     -0.00074  -0.03960  -0.04134  -0.00005
 941   74873.9    133.6      0.00334   0.05779  -0.10881  -0.00015
 942   74896.1    133.5     -0.00008   0.00009   0.01197  -0.00003
 943   74920.0    133.5      0.00228  -0.00006   0.00012   0.00028
 944   74920.9    133.5     -0.00262   0.00778  -0.01112  -0.00002
 945   74959.8    133.4     -0.00126   0.02150   0.00526  -0.00003
 946   74978.8    133.4     -0.00754   0.00006  -0.00030   0.06534
 947   74985.2    133.4      0.00770  -0.05521  -0.03844  -0.00010
 948   74993.5    133.3     -0.00028   0.07568  -0.11883  -0.00019
 949   75015.3    133.3      0.00010   0.00534  -0.00489   0.00003
 950   75041.5    133.3     -0.00511  -0.04612   0.02719   0.00003
 951   75044.0    133.3      0.00485  -0.00008   0.00005  -0.00109
 952   75089.3    133.2     -0.00038  -0.09545  -0.06236  -0.00008
 953   75171.4    133.0     -0.00039  -0.06056  -0.03635  -0.00003
 954   75212.2    133.0      0.00003  -0.00002  -0.00001  -0.00321
 955   75215.7    133.0      0.00109   0.01503  -0.01979  -0.00003
 956   75228.7    132.9     -0.00002  -0.00001   0.00004  -0.00995
 957   75242.7    132.9     -0.00035   0.00001   0.00000  -0.00492
 958   75261.9    132.9     -0.00006  -0.02926  -0.01876  -0.00002
 959   75290.6    132.8      0.00114   0.00000  -0.00012   0.14593
 960   75304.1    132.8      0.00057   0.00001  -0.00001   0.00579
 961   75359.6    132.7      0.00071   0.03007   0.01188   0.00002
 962   75406.9    132.6      0.00676  -0.00002   0.00004  -0.00002
 963   75444.8    132.5     -0.00012  -0.00000  -0.00003   0.03990
 964   75499.2    132.5     -0.00004  -0.00543   0.00914   0.00003
 965   75507.2    132.4     -0.00094   0.00001   0.00012  -0.10767
 966   75522.4    132.4     -0.00017   0.00002   0.00001  -0.00533
 967   75524.7    132.4      0.00009  -0.00000  -0.00000   0.01514
 968   75564.4    132.3      0.00198  -0.00008   0.00009   0.00041
 969   75578.4    132.3     -0.00061  -0.00006   0.00003   0.00061
 970   75578.8    132.3      0.00000   0.06290   0.00754   0.00002
 971   75619.5    132.2     -0.01005   0.22198  -0.34732  -0.00035
 972   75621.0    132.2      0.00100   0.00710   0.11480   0.00013
 973   75697.5    132.1      0.00055  -0.00003   0.00002  -0.00055
 974   75781.9    132.0      0.00007   0.02622  -0.03882  -0.00003
 975   75803.7    131.9     -0.00021   0.04468   0.02388   0.00002
 976   75834.4    131.9      0.00131   0.00003  -0.00002   0.00091
 977   75868.6    131.8      0.00029   0.01025   0.03652   0.00006
 978   75880.5    131.8      0.00152   0.10032   0.05295   0.00007
 979   75898.6    131.8     -0.00002  -0.00003  -0.00001   0.04274
 980   75986.4    131.6     -0.00173  -0.19420  -0.11781  -0.00011
 981   76002.3    131.6     -0.00005  -0.01825   0.03800  -0.00001
 982   76030.9    131.5     -0.00064  -0.06398   0.09132   0.00016
 983   76038.0    131.5     -0.01221   0.06135   0.05054  -0.00005
 984   76041.1    131.5      0.01366  -0.00001   0.00014  -0.18948
 985   76109.9    131.4      0.00029  -0.00597  -0.00352  -0.00005
 986   76115.6    131.4      0.00000  -0.00457  -0.00660  -0.00001
 987   76123.0    131.4     -0.00001   0.00002   0.00001   0.00118
 988   76148.0    131.3     -0.00199  -0.00000  -0.00015   0.15037
 989   76177.3    131.3     -0.00008  -0.00605  -0.00181   0.00000
 990   76236.4    131.2     -0.00350   0.00011   0.00001   0.00199
 991   76241.8    131.2      0.00385  -0.04129  -0.01334   0.00002
 992   76265.9    131.1     -0.00038   0.01066  -0.01832  -0.00001
 993   76286.0    131.1      0.00014  -0.00672   0.00422   0.00006
 994   76320.8    131.0     -0.00430   0.13761  -0.23763  -0.00231
 995   76321.4    131.0      0.00582   0.00204  -0.00365   0.14183
 996   76381.8    130.9      0.00006   0.00002   0.00002  -0.00789
 997   76428.1    130.8      0.00334  -0.00005  -0.00024   0.20615
 998   76432.5    130.8     -0.00674   0.00019  -0.00001   0.06457
 999   76440.2    130.8      0.00253   0.19521   0.11379   0.00009
 1000   76534.3    130.7     -0.00009  -0.00012  -0.00004   0.31629

Total run time:    29290.470 sec

           *** ORCA-CIS/TD-DFT FINISHED WITHOUT ERROR ***

Maximum memory used throughout the entire CIS-calculation: 3853.8 MB

-----------------------
CIS/TD-DFT TOTAL ENERGY
-----------------------

    E(SCF)  =   -916.075896701 Eh
    DE(CIS) =      0.048406725 Eh (Root  1)
    ----------------------------- ---------
    E(tot)  =   -916.027489975 Eh



-------------------------------------------------------------------------------
                          DFT DISPERSION CORRECTION                            
                                                                               
                                 DFTD4 V2.5                                    
-------------------------------------------------------------------------------
The B3LYP functional is recognized
Active option DFTDOPT                   ...         5   

Starting D4
-------------------------   ----------------
Dispersion correction           -0.092552737
-------------------------   ----------------


-------------------------   --------------------
FINAL SINGLE POINT ENERGY      -916.120042712937
-------------------------   --------------------


                            ***************************************
                            *     ORCA property calculations      *
                            ***************************************

                                    ---------------------
                                    Active property flags
                                    ---------------------
   (+) Dipole Moment


------------------------------------------------------------------------------
                       ORCA ELECTRIC PROPERTIES CALCULATION
------------------------------------------------------------------------------

Dipole Moment Calculation                       ... on
Quadrupole Moment Calculation                   ... off
Polarizability Calculation                      ... off
GBWName                                         ... Stone-Wales_defect_loss_eight.gbw
Electron density                                ... Stone-Wales_defect_loss_eight.scfp
The origin for moment calculation is the CENTER OF MASS  = ( 0.027653, -0.033460  0.014065)

-------------
DIPOLE MOMENT
-------------
                                X             Y             Z
Electronic contribution:     -4.00750       6.77127       0.00683
Nuclear contribution   :      4.42092      -7.46871      -0.00754
                        -----------------------------------------
Total Dipole Moment    :      0.41342      -0.69744      -0.00071
                        -----------------------------------------
Magnitude (a.u.)       :      0.81077
Magnitude (Debye)      :      2.06080



--------------------
Rotational spectrum 
--------------------
 
Rotational constants in cm-1:     0.013750     0.010117     0.005829 
Rotational constants in MHz :   412.203459   303.307157   174.734318 

 Dipole components along the rotational axes: 
x,y,z [a.u.] :    -0.810765     0.000615    -0.000006 
x,y,z [Debye]:    -2.060802     0.001562    -0.000016 

 

Timings for individual modules:

Sum of individual times         ...    31500.665 sec (= 525.011 min)
GTO integral calculation        ...        0.711 sec (=   0.012 min)   0.0 %
SCF iterations                  ...     2209.285 sec (=  36.821 min)   7.0 %
CIS module                      ...    29290.669 sec (= 488.178 min)  93.0 %
                             ****ORCA TERMINATED NORMALLY****
TOTAL RUN TIME: 0 days 8 hours 45 minutes 1 seconds 528 msec
