
                                 *****************
                                 * O   R   C   A *
                                 *****************

                                            #,                                       
                                            ###                                      
                                            ####                                     
                                            #####                                    
                                            ######                                   
                                           ########,                                 
                                     ,,################,,,,,                         
                               ,,#################################,,                 
                          ,,##########################################,,             
                       ,#########################################, ''#####,          
                    ,#############################################,,   '####,        
                  ,##################################################,,,,####,       
                ,###########''''           ''''###############################       
              ,#####''   ,,,,##########,,,,          '''####'''          '####       
            ,##' ,,,,###########################,,,                        '##       
           ' ,,###''''                  '''############,,,                           
         ,,##''                                '''############,,,,        ,,,,,,###''
      ,#''                                            '''#######################'''  
     '                                                          ''''####''''         
             ,#######,   #######,   ,#######,      ##                                
            ,#'     '#,  ##    ##  ,#'     '#,    #''#        ######   ,####,        
            ##       ##  ##   ,#'  ##            #'  '#       #        #'  '#        
            ##       ##  #######   ##           ,######,      #####,   #    #        
            '#,     ,#'  ##    ##  '#,     ,#' ,#      #,         ##   #,  ,#        
             '#######'   ##     ##  '#######'  #'      '#     #####' # '####'        



                  #######################################################
                  #                        -***-                        #
                  #          Department of theory and spectroscopy      #
                  #    Directorship and core code : Frank Neese         #
                  #        Max Planck Institute fuer Kohlenforschung    #
                  #                Kaiser Wilhelm Platz 1               #
                  #                 D-45470 Muelheim/Ruhr               #
                  #                      Germany                        #
                  #                                                     #
                  #                  All rights reserved                #
                  #                        -***-                        #
                  #######################################################



                         Program Version 5.0.4 -  RELEASE  -

 With contributions from (in alphabetic order):
   Daniel Aravena         : Magnetic Suceptibility
   Michael Atanasov       : Ab Initio Ligand Field Theory (pilot matlab implementation)
   Alexander A. Auer      : GIAO ZORA, VPT2 properties, NMR spectrum
   Ute Becker             : Parallelization
   Giovanni Bistoni       : ED, misc. LED, open-shell LED, HFLD
   Martin Brehm           : Molecular dynamics
   Dmytro Bykov           : SCF Hessian
   Vijay G. Chilkuri      : MRCI spin determinant printing, contributions to CSF-ICE
   Dipayan Datta          : RHF DLPNO-CCSD density
   Achintya Kumar Dutta   : EOM-CC, STEOM-CC
   Dmitry Ganyushin       : Spin-Orbit,Spin-Spin,Magnetic field MRCI
   Miquel Garcia          : C-PCM and meta-GGA Hessian, CC/C-PCM, Gaussian charge scheme
   Yang Guo               : DLPNO-NEVPT2, F12-NEVPT2, CIM, IAO-localization
   Andreas Hansen         : Spin unrestricted coupled pair/coupled cluster methods
   Benjamin Helmich-Paris : MC-RPA, TRAH-SCF, COSX integrals
   Lee Huntington         : MR-EOM, pCC
   Robert Izsak           : Overlap fitted RIJCOSX, COSX-SCS-MP3, EOM
   Marcus Kettner         : VPT2
   Christian Kollmar      : KDIIS, OOCD, Brueckner-CCSD(T), CCSD density, CASPT2, CASPT2-K
   Simone Kossmann        : Meta GGA functionals, TD-DFT gradient, OOMP2, MP2 Hessian
   Martin Krupicka        : Initial AUTO-CI
   Lucas Lang             : DCDCAS
   Marvin Lechner         : AUTO-CI (C++ implementation), FIC-MRCC
   Dagmar Lenk            : GEPOL surface, SMD
   Dimitrios Liakos       : Extrapolation schemes; Compound Job, initial MDCI parallelization
   Dimitrios Manganas     : Further ROCIS development; embedding schemes
   Dimitrios Pantazis     : SARC Basis sets
   Anastasios Papadopoulos: AUTO-CI, single reference methods and gradients
   Taras Petrenko         : DFT Hessian,TD-DFT gradient, ASA, ECA, R-Raman, ABS, FL, XAS/XES, NRVS
   Peter Pinski           : DLPNO-MP2, DLPNO-MP2 Gradient
   Christoph Reimann      : Effective Core Potentials
   Marius Retegan         : Local ZFS, SOC
   Christoph Riplinger    : Optimizer, TS searches, QM/MM, DLPNO-CCSD(T), (RO)-DLPNO pert. Triples
   Tobias Risthaus        : Range-separated hybrids, TD-DFT gradient, RPA, STAB
   Michael Roemelt        : Original ROCIS implementation
   Masaaki Saitow         : Open-shell DLPNO-CCSD energy and density
   Barbara Sandhoefer     : DKH picture change effects
   Avijit Sen             : IP-ROCIS
   Kantharuban Sivalingam : CASSCF convergence, NEVPT2, FIC-MRCI
   Bernardo de Souza      : ESD, SOC TD-DFT
   Georgi Stoychev        : AutoAux, RI-MP2 NMR, DLPNO-MP2 response
   Willem Van den Heuvel  : Paramagnetic NMR
   Boris Wezisla          : Elementary symmetry handling
   Frank Wennmohs         : Technical directorship


 We gratefully acknowledge several colleagues who have allowed us to
 interface, adapt or use parts of their codes:
   Stefan Grimme, W. Hujo, H. Kruse, P. Pracht,  : VdW corrections, initial TS optimization,
                  C. Bannwarth, S. Ehlert          DFT functionals, gCP, sTDA/sTD-DF
   Ed Valeev, F. Pavosevic, A. Kumar             : LibInt (2-el integral package), F12 methods
   Garnet Chan, S. Sharma, J. Yang, R. Olivares  : DMRG
   Ulf Ekstrom                                   : XCFun DFT Library
   Mihaly Kallay                                 : mrcc  (arbitrary order and MRCC methods)
   Jiri Pittner, Ondrej Demel                    : Mk-CCSD
   Frank Weinhold                                : gennbo (NPA and NBO analysis)
   Christopher J. Cramer and Donald G. Truhlar   : smd solvation model
   Lars Goerigk                                  : TD-DFT with DH, B97 family of functionals
   V. Asgeirsson, H. Jonsson                     : NEB implementation
   FAccTs GmbH                                   : IRC, NEB, NEB-TS, DLPNO-Multilevel, CI-OPT
                                                   MM, QMMM, 2- and 3-layer-ONIOM, Crystal-QMMM,
                                                   LR-CPCM, SF, NACMEs, symmetry and pop. for TD-DFT,
                                                   nearIR, NL-DFT gradient (VV10), updates on ESD,
                                                   ML-optimized integration grids
   S Lehtola, MJT Oliveira, MAL Marques          : LibXC Library
   Liviu Ungur et al                             : ANISO software


 Your calculation uses the libint2 library for the computation of 2-el integrals
 For citations please refer to: http://libint.valeyev.net

 Your ORCA version has been built with support for libXC version: 5.1.0
 For citations please refer to: https://tddft.org/programs/libxc/

 This ORCA versions uses:
   CBLAS   interface :  Fast vector & matrix operations
   LAPACKE interface :  Fast linear algebra routines
   Shared memory     :  Shared parallel matrices


XCFun DFT library Copyright 2009-2010 Ulf Ekstrom and contributors.
See http://admol.org/xcfun for more information.
This is free software; see the source code for copying conditions.
There is ABSOLUTELY NO WARRANTY; not even for MERCHANTABILITY or FITNESS FOR A PARTICULAR PURPOSE.
For details see the documentation.
Scientific users of this library should cite U. Ekstrom, L. Visscher, R. Bast, A. J. Thorvaldsen and K. Ruud;
J.Chem.Theor.Comp. 2010, DOI: 10.1021/ct100117s
XCFun Version 0.99 

================================================================================

----- Orbital basis set information -----
Your calculation utilizes the basis: def2-TZVP
   F. Weigend and R. Ahlrichs, Phys. Chem. Chem. Phys. 7, 3297 (2005).

----- AuxJ basis set information -----
Your calculation utilizes the auxiliary basis: def2/J
   F. Weigend, Phys. Chem. Chem. Phys. 8, 1057 (2006).

================================================================================
                                        WARNINGS
                       Please study these warnings very carefully!
================================================================================


WARNING: your system is open-shell and RHF/RKS was chosen
  ===> : WILL SWITCH to UHF/UKS


WARNING: Geometry Optimization
  ===> : Switching off AutoStart
         For restart on a previous wavefunction, please use MOREAD

WARNING: Minnesota functionals are quite sensitive to the integration grid.
         see SE Wheeler, KN Houk, JCTC 2010, 6, 395,
             N Mardirossian, M Head-Gordon, JCTC 2016, 12, 4303.
         DEFGRID3 seems to be a minimum grid for reliable results with these functionals!
  ===> : Please increase the integration grid!


INFO   : the flag for use of the SHARK integral package has been found!

================================================================================
                                       INPUT FILE
================================================================================
NAME = eight_seven_ten_position.inp
|  1> !M062X DEF2-TZVP OPT FREQ 
|  2> 
|  3> %maxcore 3000
|  4> %pal
|  5> nprocs 5
|  6> end
|  7> 
|  8> %freq
|  9>   TEMP 298.15,10,20,50,100,6000,8000,10000
| 10>   end
| 11> 
| 12> * xyz 0 2
| 13>   C   2.45025911436908     -2.79090177790463     -0.00000982964919
| 14>   C   1.27956958510907     -3.48660258649203     -0.00004173389427
| 15>   C   0.03020658595300     -2.81550364249800     -0.00011862088441
| 16>   C   -1.20107819729747     -3.52526706874898     -0.00015240048714
| 17>   C   -2.38858789470557     -2.86502728739536     -0.00022482001470
| 18>   C   -2.44105509445554     -1.44398386157020     -0.00026954248287
| 19>   C   -3.67663052786843     -0.75322560258363     -0.00034505741295
| 20>   C   -3.72620674307354      0.61012331224561     -0.00038725318909
| 21>   C   -2.53312282987023      1.35934632798929     -0.00035605272073
| 22>   C   -2.34753337498203      2.75391254959518     -0.00038934949593
| 23>   C   -1.29670155377861      3.37861761727772     -0.00036267557578
| 24>   C   0.01685582404701      2.87468391601134     -0.00029170556996
| 25>   C   1.24552120765708      3.56426857632077     -0.00025954932536
| 26>   C   2.41910897755889      2.86883891663109     -0.00018686269248
| 27>   C   2.43513201634147      1.45348005475609     -0.00014272162428
| 28>   C   3.65821453508405      0.72792377916697     -0.00006423037791
| 29>   C   3.67026889114169     -0.63084151991298     -0.00002152358643
| 30>   C   2.45819623267264     -1.37288294365309     -0.00005292192897
| 31>   C   1.23136494255913     -0.68205099072942     -0.00012978920390
| 32>   C   1.21552338299244      0.74291881045426     -0.00017515439035
| 33>   C   -0.02157562885261      1.44516062565708     -0.00024971485033
| 34>   C   -1.25909575897147      0.70970393432854     -0.00028207962759
| 35>   C   -1.23391475435778     -0.71245727770562     -0.00023706797792
| 36>   C   0.01012694395947     -1.40778803226763     -0.00016249723364
| 37>   H   3.39883583341171     -3.31417365841427      0.00004947598548
| 38>   H   1.28571717640132     -4.56990075715492     -0.00000797167050
| 39>   H   -1.17451584360617     -4.60820675048880     -0.00011872516592
| 40>   H   -3.32207671532680     -3.41465497856564     -0.00025023814909
| 41>   H   -4.59253679048289     -1.33153116975716     -0.00036952032608
| 42>   H   -4.67219071827069      1.13379875695350     -0.00044562775965
| 43>   H   1.23798091724791      4.64550021059141     -0.00029268019975
| 44>   H   4.58720556626417      1.28510572107642     -0.00003933255885
| 45>   H   4.60871019346374     -1.17195606478706      0.00003963734661
| 46>   *
| 47> 
| 48>                          ****END OF INPUT****
================================================================================

                       *****************************
                       * Geometry Optimization Run *
                       *****************************

Geometry optimization settings:
Update method            Update   .... BFGS
Choice of coordinates    CoordSys .... Z-matrix Internals
Initial Hessian          InHess   .... Almoef's Model

Convergence Tolerances:
Energy Change            TolE     ....  5.0000e-06 Eh
Max. Gradient            TolMAXG  ....  3.0000e-04 Eh/bohr
RMS Gradient             TolRMSG  ....  1.0000e-04 Eh/bohr
Max. Displacement        TolMAXD  ....  4.0000e-03 bohr
RMS Displacement         TolRMSD  ....  2.0000e-03 bohr
Strict Convergence                ....  False
------------------------------------------------------------------------------
                        ORCA OPTIMIZATION COORDINATE SETUP
------------------------------------------------------------------------------

The optimization will be done in new redundant internal coordinates
Making redundant internal coordinates   ...  (new redundants) done
Evaluating the initial hessian          ...  (Almloef) done
Evaluating the coordinates              ...  done
Calculating the B-matrix                .... done
Calculating the G-matrix                .... done
Diagonalizing the G-matrix              .... done
The first mode is                       ....  121
The number of degrees of freedom        ....   93

    -----------------------------------------------------------------
                    Redundant Internal Coordinates


    -----------------------------------------------------------------
         Definition                    Initial Value    Approx d2E/dq
    -----------------------------------------------------------------
      1. B(C   1,C   0)                  1.3618         0.692981   
      2. B(C   2,C   1)                  1.4182         0.563317   
      3. B(C   3,C   2)                  1.4212         0.557123   
      4. B(C   4,C   3)                  1.3587         0.700903   
      5. B(C   5,C   4)                  1.4220         0.555477   
      6. B(C   6,C   5)                  1.4156         0.568812   
      7. B(C   7,C   6)                  1.3643         0.686785   
      8. B(C   8,C   7)                  1.4088         0.583051   
      9. B(C   9,C   8)                  1.4069         0.587270   
     10. B(C  10,C   9)                  1.2225         1.156047   
     11. B(C  11,C  10)                  1.4069         0.587175   
     12. B(C  12,C  11)                  1.4090         0.582776   
     13. B(C  13,C  12)                  1.3642         0.687014   
     14. B(C  14,C  13)                  1.4154         0.569030   
     15. B(C  15,C  14)                  1.4221         0.555301   
     16. B(C  16,C  15)                  1.3588         0.700626   
     17. B(C  17,C  16)                  1.4212         0.557182   
     18. B(C  17,C   0)                  1.4180         0.563639   
     19. B(C  18,C  17)                  1.4080         0.584894   
     20. B(C  19,C  18)                  1.4251         0.549295   
     21. B(C  19,C  14)                  1.4115         0.577339   
     22. B(C  20,C  19)                  1.4225         0.554445   
     23. B(C  20,C  11)                  1.4300         0.539334   
     24. B(C  21,C  20)                  1.4396         0.520784   
     25. B(C  21,C   8)                  1.4301         0.539219   
     26. B(C  22,C  21)                  1.4224         0.554717   
     27. B(C  22,C   5)                  1.4115         0.577357   
     28. B(C  23,C  22)                  1.4252         0.549058   
     29. B(C  23,C  18)                  1.4206         0.558356   
     30. B(C  23,C   2)                  1.4079         0.585121   
     31. B(H  24,C   0)                  1.0833         0.369028   
     32. B(H  25,C   1)                  1.0833         0.369052   
     33. B(H  26,C   3)                  1.0833         0.369120   
     34. B(H  27,C   4)                  1.0833         0.369103   
     35. B(H  28,C   6)                  1.0832         0.369209   
     36. B(H  29,C   7)                  1.0813         0.371850   
     37. B(H  30,C  12)                  1.0813         0.371852   
     38. B(H  31,C  15)                  1.0833         0.369113   
     39. B(H  32,C  16)                  1.0833         0.369112   
     40. A(C  17,C   0,H  24)          118.5621         0.348713   
     41. A(C   1,C   0,H  24)          120.3956         0.361145   
     42. A(C   1,C   0,C  17)          121.0423         0.435316   
     43. A(C   0,C   1,H  25)          120.3964         0.361149   
     44. A(C   0,C   1,C   2)          121.0358         0.435271   
     45. A(C   2,C   1,H  25)          118.5677         0.348683   
     46. A(C   1,C   2,C  23)          119.0598         0.422262   
     47. A(C   1,C   2,C   3)          121.7965         0.418584   
     48. A(C   3,C   2,C  23)          119.1437         0.421430   
     49. A(C   4,C   3,H  26)          120.4786         0.361861   
     50. A(C   2,C   3,H  26)          118.5559         0.348045   
     51. A(C   2,C   3,C   4)          120.9656         0.435296   
     52. A(C   3,C   4,H  27)          120.4374         0.361858   
     53. A(C   3,C   4,C   5)          121.1880         0.435064   
     54. A(C   5,C   4,H  27)          118.3746         0.347868   
     55. A(C   4,C   5,C   6)          121.3222         0.419088   
     56. A(C   6,C   5,C  22)          119.5764         0.421987   
     57. A(C   4,C   5,C  22)          119.1014         0.420204   
     58. A(C   5,C   6,C   7)          121.2903         0.435328   
     59. A(C   5,C   6,H  28)          118.5239         0.349279   
     60. A(C   7,C   6,H  28)          120.1859         0.360623   
     61. A(C   6,C   7,H  29)          121.0505         0.361061   
     62. A(C   6,C   7,C   8)          120.0451         0.437272   
     63. A(C   8,C   7,H  29)          118.9044         0.351162   
     64. A(C   9,C   8,C  21)          109.4372         0.419255   
     65. A(C   7,C   8,C  21)          120.8547         0.418716   
     66. A(C   7,C   8,C   9)          129.7081         0.425148   
     67. A(C   8,C   9,C  10)          128.3113         0.481477   
     68. A(C   9,C  10,C  11)          128.2803         0.481463   
     69. A(C  12,C  11,C  20)          120.8432         0.418697   
     70. A(C  10,C  11,C  20)          109.4489         0.419258   
     71. A(C  10,C  11,C  12)          129.7080         0.425100   
     72. A(C  11,C  12,H  30)          118.9036         0.351135   
     73. A(C  11,C  12,C  13)          120.0472         0.437261   
     74. A(C  13,C  12,H  30)          121.0492         0.361082   
     75. A(C  12,C  13,C  14)          121.2982         0.435385   
     76. A(C  13,C  14,C  15)          121.3258         0.419093   
     77. A(C  15,C  14,C  19)          119.0971         0.420178   
     78. A(C  13,C  14,C  19)          119.5771         0.422014   
     79. A(C  14,C  15,H  31)          118.3686         0.347851   
     80. A(C  14,C  15,C  16)          121.1855         0.435008   
     81. A(C  16,C  15,H  31)          120.4458         0.361836   
     82. A(C  15,C  16,C  17)          120.9670         0.435273   
     83. A(C  17,C  16,H  32)          118.5565         0.348050   
     84. A(C  15,C  16,H  32)          120.4765         0.361836   
     85. A(C  16,C  17,C  18)          119.1407         0.421408   
     86. A(C   0,C  17,C  18)          119.0633         0.422276   
     87. A(C   0,C  17,C  16)          121.7960         0.418635   
     88. A(C  17,C  18,C  19)          120.0209         0.420337   
     89. A(C  19,C  18,C  23)          120.0845         0.416873   
     90. A(C  17,C  18,C  23)          119.8946         0.421567   
     91. A(C  18,C  19,C  20)          120.2184         0.416352   
     92. A(C  14,C  19,C  20)          120.1928         0.420062   
     93. A(C  14,C  19,C  18)          119.5887         0.419364   
     94. A(C  11,C  20,C  19)          118.0415         0.414999   
     95. A(C  19,C  20,C  21)          119.6955         0.412427   
     96. A(C  11,C  20,C  21)          122.2629         0.410410   
     97. A(C  20,C  21,C  22)          119.7086         0.412463   
     98. A(C   8,C  21,C  22)          118.0320         0.415019   
     99. A(C   8,C  21,C  20)          122.2594         0.410395   
    100. A(C  21,C  22,C  23)          120.2165         0.416357   
    101. A(C   5,C  22,C  23)          119.5821         0.419334   
    102. A(C   5,C  22,C  21)          120.2015         0.420101   
    103. A(C  18,C  23,C  22)          120.0765         0.416841   
    104. A(C   2,C  23,C  22)          120.0193         0.420334   
    105. A(C   2,C  23,C  18)          119.9043         0.421596   
    106. D(C   2,C   1,C   0,C  17)     -0.0000         0.033765   
    107. D(C   2,C   1,C   0,H  24)    180.0000         0.033765   
    108. D(H  25,C   1,C   0,H  24)      0.0000         0.033765   
    109. D(H  25,C   1,C   0,C  17)   -180.0000         0.033765   
    110. D(C  23,C   2,C   1,C   0)      0.0000         0.021747   
    111. D(C  23,C   2,C   1,H  25)    180.0000         0.021747   
    112. D(C   3,C   2,C   1,C   0)   -180.0000         0.021747   
    113. D(C   3,C   2,C   1,H  25)     -0.0000         0.021747   
    114. D(C   4,C   3,C   2,C   1)    179.9999         0.021253   
    115. D(H  26,C   3,C   2,C  23)    180.0000         0.021253   
    116. D(H  26,C   3,C   2,C   1)     -0.0000         0.021253   
    117. D(C   4,C   3,C   2,C  23)     -0.0001         0.021253   
    118. D(C   5,C   4,C   3,H  26)    180.0000         0.034607   
    119. D(H  27,C   4,C   3,C   2)    180.0000         0.034607   
    120. D(C   5,C   4,C   3,C   2)      0.0000         0.034607   
    121. D(H  27,C   4,C   3,H  26)     -0.0000         0.034607   
    122. D(C  22,C   5,C   4,H  27)    180.0000         0.021123   
    123. D(C  22,C   5,C   4,C   3)     -0.0000         0.021123   
    124. D(C   6,C   5,C   4,C   3)    180.0000         0.021123   
    125. D(C   6,C   5,C   4,H  27)      0.0000         0.021123   
    126. D(C   7,C   6,C   5,C  22)     -0.0000         0.022191   
    127. D(H  28,C   6,C   5,C  22)    180.0000         0.022191   
    128. D(H  28,C   6,C   5,C   4)     -0.0001         0.022191   
    129. D(C   7,C   6,C   5,C   4)    180.0000         0.022191   
    130. D(H  29,C   7,C   6,H  28)     -0.0000         0.033116   
    131. D(C   8,C   7,C   6,C   5)      0.0000         0.033116   
    132. D(C   8,C   7,C   6,H  28)   -180.0000         0.033116   
    133. D(H  29,C   7,C   6,C   5)    180.0000         0.033116   
    134. D(C  21,C   8,C   7,C   6)      0.0001         0.023367   
    135. D(C   9,C   8,C   7,C   6)    180.0000         0.023367   
    136. D(C   9,C   8,C   7,H  29)      0.0000         0.023367   
    137. D(C  21,C   8,C   7,H  29)   -179.9999         0.023367   
    138. D(C  10,C   9,C   8,C  21)     -0.0000         0.021530   
    139. D(C  10,C   9,C   8,C   7)   -179.9999         0.021530   
    140. D(C  11,C  10,C   9,C   8)      0.0000         0.084996   
    141. D(C  20,C  11,C  10,C   9)     -0.0001         0.021522   
    142. D(C  12,C  11,C  10,C   9)    180.0000         0.021522   
    143. D(H  30,C  12,C  11,C  20)   -180.0000         0.023344   
    144. D(H  30,C  12,C  11,C  10)     -0.0001         0.023344   
    145. D(C  13,C  12,C  11,C  20)     -0.0000         0.023344   
    146. D(C  13,C  12,C  11,C  10)    179.9999         0.023344   
    147. D(C  14,C  13,C  12,H  30)    180.0000         0.030016   
    148. D(C  14,C  13,C  12,C  11)      0.0000         0.030016   
    149. D(C  19,C  14,C  13,C  12)      0.0000         0.020164   
    150. D(C  15,C  14,C  13,C  12)   -179.9999         0.020164   
    151. D(H  31,C  15,C  14,C  19)   -180.0000         0.021109   
    152. D(H  31,C  15,C  14,C  13)     -0.0000         0.021109   
    153. D(C  16,C  15,C  14,C  19)      0.0001         0.021109   
    154. D(C  16,C  15,C  14,C  13)    180.0000         0.021109   
    155. D(H  32,C  16,C  15,C  14)   -179.9999         0.034578   
    156. D(C  17,C  16,C  15,H  31)    180.0000         0.034578   
    157. D(C  17,C  16,C  15,C  14)     -0.0000         0.034578   
    158. D(H  32,C  16,C  15,H  31)      0.0001         0.034578   
    159. D(C  18,C  17,C  16,H  32)    179.9999         0.021257   
    160. D(C  18,C  17,C  16,C  15)      0.0000         0.021257   
    161. D(C   0,C  17,C  16,H  32)     -0.0002         0.021257   
    162. D(C   0,C  17,C  16,C  15)    180.0000         0.021257   
    163. D(C  18,C  17,C   0,H  24)   -180.0000         0.021772   
    164. D(C  18,C  17,C   0,C   1)      0.0000         0.021772   
    165. D(C  16,C  17,C   0,H  24)      0.0001         0.021772   
    166. D(C  16,C  17,C   0,C   1)   -180.0000         0.021772   
    167. D(C  19,C  18,C  17,C  16)      0.0000         0.023522   
    168. D(C  19,C  18,C  17,C   0)   -180.0000         0.023522   
    169. D(C  23,C  18,C  17,C  16)    180.0000         0.023522   
    170. D(C  23,C  18,C  17,C   0)      0.0000         0.023522   
    171. D(C  20,C  19,C  18,C  23)      0.0002         0.020639   
    172. D(C  20,C  19,C  18,C  17)   -179.9999         0.020639   
    173. D(C  14,C  19,C  18,C  23)   -180.0000         0.020639   
    174. D(C  14,C  19,C  18,C  17)      0.0000         0.020639   
    175. D(C  20,C  19,C  14,C  15)    179.9998         0.022891   
    176. D(C  20,C  19,C  14,C  13)     -0.0001         0.022891   
    177. D(C  18,C  19,C  14,C  15)     -0.0000         0.022891   
    178. D(C  18,C  19,C  14,C  13)   -180.0000         0.022891   
    179. D(C  21,C  20,C  19,C  18)     -0.0001         0.021042   
    180. D(C  21,C  20,C  19,C  14)   -180.0000         0.021042   
    181. D(C  11,C  20,C  19,C  18)    179.9999         0.021042   
    182. D(C  11,C  20,C  19,C  14)      0.0001         0.021042   
    183. D(C  21,C  20,C  11,C  12)   -179.9999         0.019874   
    184. D(C  21,C  20,C  11,C  10)      0.0001         0.019874   
    185. D(C  19,C  20,C  11,C  12)     -0.0000         0.019874   
    186. D(C  19,C  20,C  11,C  10)   -180.0000         0.019874   
    187. D(C  22,C  21,C  20,C  19)      0.0001         0.018498   
    188. D(C  22,C  21,C  20,C  11)   -180.0000         0.018498   
    189. D(C   8,C  21,C  20,C  19)    180.0000         0.018498   
    190. D(C   8,C  21,C  20,C  11)     -0.0001         0.018498   
    191. D(C  22,C  21,C   8,C   9)    179.9999         0.019865   
    192. D(C  22,C  21,C   8,C   7)     -0.0002         0.019865   
    193. D(C  20,C  21,C   8,C   9)      0.0000         0.019865   
    194. D(C  20,C  21,C   8,C   7)    179.9999         0.019865   
    195. D(C  23,C  22,C  21,C  20)     -0.0001         0.021063   
    196. D(C  23,C  22,C  21,C   8)   -180.0000         0.021063   
    197. D(C   5,C  22,C  21,C  20)   -179.9999         0.021063   
    198. D(C   5,C  22,C  21,C   8)      0.0002         0.021063   
    199. D(C  23,C  22,C   5,C   6)   -179.9999         0.022892   
    200. D(C  23,C  22,C   5,C   4)      0.0001         0.022892   
    201. D(C  21,C  22,C   5,C   6)     -0.0001         0.022892   
    202. D(C  21,C  22,C   5,C   4)    179.9999         0.022892   
    203. D(C  18,C  23,C  22,C  21)      0.0001         0.020621   
    204. D(C  18,C  23,C  22,C   5)    180.0000         0.020621   
    205. D(C   2,C  23,C  22,C   5)     -0.0001         0.020621   
    206. D(C  22,C  23,C  18,C  19)     -0.0002         0.021351   
    207. D(C  22,C  23,C  18,C  17)    179.9999         0.021351   
    208. D(C   2,C  23,C  18,C  19)    179.9999         0.021351   
    209. D(C   2,C  23,C  18,C  17)     -0.0000         0.021351   
    210. D(C  22,C  23,C   2,C   3)      0.0001         0.023541   
    211. D(C   2,C  23,C  22,C  21)   -180.0000         0.020621   
    212. D(C  22,C  23,C   2,C   1)   -179.9999         0.023541   
    213. D(C  18,C  23,C   2,C   3)   -180.0000         0.023541   
    214. D(C  18,C  23,C   2,C   1)      0.0000         0.023541   
    -----------------------------------------------------------------

Number of atoms                         .... 33
Number of degrees of freedom            .... 214

         *************************************************************
         *                GEOMETRY OPTIMIZATION CYCLE   1            *
         *************************************************************
---------------------------------
CARTESIAN COORDINATES (ANGSTROEM)
---------------------------------
  C      2.450259   -2.790902   -0.000010
  C      1.279570   -3.486603   -0.000042
  C      0.030207   -2.815504   -0.000119
  C     -1.201078   -3.525267   -0.000152
  C     -2.388588   -2.865027   -0.000225
  C     -2.441055   -1.443984   -0.000270
  C     -3.676631   -0.753226   -0.000345
  C     -3.726207    0.610123   -0.000387
  C     -2.533123    1.359346   -0.000356
  C     -2.347533    2.753913   -0.000389
  C     -1.296702    3.378618   -0.000363
  C      0.016856    2.874684   -0.000292
  C      1.245521    3.564269   -0.000260
  C      2.419109    2.868839   -0.000187
  C      2.435132    1.453480   -0.000143
  C      3.658215    0.727924   -0.000064
  C      3.670269   -0.630842   -0.000022
  C      2.458196   -1.372883   -0.000053
  C      1.231365   -0.682051   -0.000130
  C      1.215523    0.742919   -0.000175
  C     -0.021576    1.445161   -0.000250
  C     -1.259096    0.709704   -0.000282
  C     -1.233915   -0.712457   -0.000237
  C      0.010127   -1.407788   -0.000162
  H      3.398836   -3.314174    0.000049
  H      1.285717   -4.569901   -0.000008
  H     -1.174516   -4.608207   -0.000119
  H     -3.322077   -3.414655   -0.000250
  H     -4.592537   -1.331531   -0.000370
  H     -4.672191    1.133799   -0.000446
  H      1.237981    4.645500   -0.000293
  H      4.587206    1.285106   -0.000039
  H      4.608710   -1.171956    0.000040

----------------------------
CARTESIAN COORDINATES (A.U.)
----------------------------
  NO LB      ZA    FRAG     MASS         X           Y           Z
   0 C     6.0000    0    12.011    4.630319   -5.274040   -0.000019
   1 C     6.0000    0    12.011    2.418036   -6.588724   -0.000079
   2 C     6.0000    0    12.011    0.057082   -5.320531   -0.000224
   3 C     6.0000    0    12.011   -2.269709   -6.661789   -0.000288
   4 C     6.0000    0    12.011   -4.513777   -5.414117   -0.000425
   5 C     6.0000    0    12.011   -4.612926   -2.728734   -0.000509
   6 C     6.0000    0    12.011   -6.947825   -1.423390   -0.000652
   7 C     6.0000    0    12.011   -7.041510    1.152966   -0.000732
   8 C     6.0000    0    12.011   -4.786908    2.568792   -0.000673
   9 C     6.0000    0    12.011   -4.436195    5.204141   -0.000736
  10 C     6.0000    0    12.011   -2.450411    6.384662   -0.000685
  11 C     6.0000    0    12.011    0.031853    5.432365   -0.000551
  12 C     6.0000    0    12.011    2.353694    6.735491   -0.000490
  13 C     6.0000    0    12.011    4.571453    5.421320   -0.000353
  14 C     6.0000    0    12.011    4.601733    2.746679   -0.000270
  15 C     6.0000    0    12.011    6.913024    1.375577   -0.000121
  16 C     6.0000    0    12.011    6.935803   -1.192118   -0.000041
  17 C     6.0000    0    12.011    4.645318   -2.594373   -0.000100
  18 C     6.0000    0    12.011    2.326943   -1.288890   -0.000245
  19 C     6.0000    0    12.011    2.297006    1.403913   -0.000331
  20 C     6.0000    0    12.011   -0.040772    2.730958   -0.000472
  21 C     6.0000    0    12.011   -2.379346    1.341146   -0.000533
  22 C     6.0000    0    12.011   -2.331761   -1.346349   -0.000448
  23 C     6.0000    0    12.011    0.019137   -2.660334   -0.000307
  24 H     1.0000    0     1.008    6.422869   -6.262881    0.000093
  25 H     1.0000    0     1.008    2.429653   -8.635861   -0.000015
  26 H     1.0000    0     1.008   -2.219513   -8.708249   -0.000224
  27 H     1.0000    0     1.008   -6.277815   -6.452763   -0.000473
  28 H     1.0000    0     1.008   -8.678637   -2.516229   -0.000698
  29 H     1.0000    0     1.008   -8.829161    2.142569   -0.000842
  30 H     1.0000    0     1.008    2.339445    8.778723   -0.000553
  31 H     1.0000    0     1.008    8.668562    2.428498   -0.000074
  32 H     1.0000    0     1.008    8.709200   -2.214676    0.000075

--------------------------------
INTERNAL COORDINATES (ANGSTROEM)
--------------------------------
 C      0   0   0     0.000000000000     0.00000000     0.00000000
 C      1   0   0     1.361805268754     0.00000000     0.00000000
 C      2   1   0     1.418196637354   121.03583292     0.00000000
 C      3   2   1     1.421205945614   121.79647736   180.00002093
 C      4   3   2     1.358711100847   120.96559056   179.99993381
 C      5   4   3     1.422011683191   121.18797557     0.00000000
 C      6   5   4     1.415554177598   121.32221127   179.99999759
 C      7   6   5     1.364250001452   121.29028049   179.99996672
 C      8   7   6     1.408823747755   120.04510016     0.00000000
 C      9   8   7     1.406861184808   129.70806587   179.99996473
 C     10   9   8     1.222499054705   128.31130613   180.00011092
 C     11  10   9     1.406905172764   128.28026653     0.00000000
 C     12  11  10     1.408951961441   129.70798299   179.99998799
 C     13  12  11     1.364159327396   120.04722264   179.99990053
 C     14  13  12     1.415449556716   121.29820085     0.00000000
 C     15  14  13     1.422098014506   121.32584833   180.00012803
 C     16  15  14     1.358818769118   121.18552930   179.99997617
 C      1   2   3     1.418041048065   121.04226979     0.00000000
 C     18   1   2     1.407964419824   119.06327690     0.00000000
 C     15  14  13     1.411503631414   119.57707472     0.00000000
 C     20  15  14     1.422518027192   120.19281654     0.00000000
 C      9   8   7     1.430097976537   120.85473388     0.00000000
 C      6   5   4     1.411495286796   119.10135545     0.00000000
 C      3   2   1     1.407858811541   119.05980831     0.00000000
 H      1   2   3     1.083333400371   120.39558970   179.99996853
 H      2   1   3     1.083315614482   120.39642639   180.00004009
 H      4   3   2     1.083265394100   118.55585572     0.00000000
 H      5   4   3     1.083278347320   120.43741905   179.99999080
 H      7   6   5     1.083199709896   118.52386065     0.00000000
 H      8   7   6     1.081259291811   121.05048770   179.99995603
 H     13  12  11     1.081257926688   118.90362198     0.00000000
 H     16  15  14     1.083270997038   118.36864910     0.00000000
 H     17  16  15     1.083271449046   120.47646391   180.00008716

---------------------------
INTERNAL COORDINATES (A.U.)
---------------------------
 C      0   0   0     0.000000000000     0.00000000     0.00000000
 C      1   0   0     2.573439005676     0.00000000     0.00000000
 C      2   1   0     2.680003248647   121.03583292     0.00000000
 C      3   2   1     2.685690017111   121.79647736   180.00002093
 C      4   3   2     2.567591875719   120.96559056   179.99993381
 C      5   4   3     2.687212640467   121.18797557     0.00000000
 C      6   5   4     2.675009723388   121.32221127   179.99999759
 C      7   6   5     2.578058880945   121.29028049   179.99996672
 C      8   7   6     2.662291054221   120.04510016     0.00000000
 C      9   8   7     2.658582347731   129.70806587   179.99996473
 C     10   9   8     2.310188412369   128.31130613   180.00011092
 C     11  10   9     2.658665472920   128.28026653     0.00000000
 C     12  11  10     2.662533342976   129.70798299   179.99998799
 C     13  12  11     2.577887531813   120.04722264   179.99990053
 C     14  13  12     2.674812018574   121.29820085     0.00000000
 C     15  14  13     2.687375783009   121.32584833   180.00012803
 C     16  15  14     2.567795339265   121.18552930   179.99997617
 C      1   2   3     2.679709227501   121.04226979     0.00000000
 C     18   1   2     2.660667159773   119.06327690     0.00000000
 C     15  14  13     2.667355300408   119.57707472     0.00000000
 C     20  15  14     2.688169491959   120.19281654     0.00000000
 C      9   8   7     2.702493520330   120.85473388     0.00000000
 C      6   5   4     2.667339531365   119.10135545     0.00000000
 C      3   2   1     2.660467589041   119.05980831     0.00000000
 H      1   2   3     2.047203438430   120.39558970   179.99996853
 H      2   1   3     2.047169827971   120.39642639   180.00004009
 H      4   3   2     2.047074925203   118.55585572     0.00000000
 H      5   4   3     2.047099403241   120.43741905   179.99999080
 H      7   6   5     2.046950800046   118.52386065     0.00000000
 H      8   7   6     2.043283941280   121.05048770   179.99995603
 H     13  12  11     2.043281361571   118.90362198     0.00000000
 H     16  15  14     2.047085513221   118.36864910     0.00000000
 H     17  16  15     2.047086367394   120.47646391   180.00008716

---------------------
BASIS SET INFORMATION
---------------------
There are 2 groups of distinct atoms

 Group   1 Type C   : 11s6p2d1f contracted to 5s3p2d1f pattern {62111/411/11/1}
 Group   2 Type H   : 5s1p contracted to 3s1p pattern {311/1}

Atom   0C    basis set group =>   1
Atom   1C    basis set group =>   1
Atom   2C    basis set group =>   1
Atom   3C    basis set group =>   1
Atom   4C    basis set group =>   1
Atom   5C    basis set group =>   1
Atom   6C    basis set group =>   1
Atom   7C    basis set group =>   1
Atom   8C    basis set group =>   1
Atom   9C    basis set group =>   1
Atom  10C    basis set group =>   1
Atom  11C    basis set group =>   1
Atom  12C    basis set group =>   1
Atom  13C    basis set group =>   1
Atom  14C    basis set group =>   1
Atom  15C    basis set group =>   1
Atom  16C    basis set group =>   1
Atom  17C    basis set group =>   1
Atom  18C    basis set group =>   1
Atom  19C    basis set group =>   1
Atom  20C    basis set group =>   1
Atom  21C    basis set group =>   1
Atom  22C    basis set group =>   1
Atom  23C    basis set group =>   1
Atom  24H    basis set group =>   2
Atom  25H    basis set group =>   2
Atom  26H    basis set group =>   2
Atom  27H    basis set group =>   2
Atom  28H    basis set group =>   2
Atom  29H    basis set group =>   2
Atom  30H    basis set group =>   2
Atom  31H    basis set group =>   2
Atom  32H    basis set group =>   2
---------------------------------
AUXILIARY/J BASIS SET INFORMATION
---------------------------------
There are 2 groups of distinct atoms

 Group   1 Type C   : 12s5p4d2f1g contracted to 6s4p3d1f1g pattern {711111/2111/211/2/1}
 Group   2 Type H   : 5s2p1d contracted to 3s1p1d pattern {311/2/1}

Atom   0C    basis set group =>   1
Atom   1C    basis set group =>   1
Atom   2C    basis set group =>   1
Atom   3C    basis set group =>   1
Atom   4C    basis set group =>   1
Atom   5C    basis set group =>   1
Atom   6C    basis set group =>   1
Atom   7C    basis set group =>   1
Atom   8C    basis set group =>   1
Atom   9C    basis set group =>   1
Atom  10C    basis set group =>   1
Atom  11C    basis set group =>   1
Atom  12C    basis set group =>   1
Atom  13C    basis set group =>   1
Atom  14C    basis set group =>   1
Atom  15C    basis set group =>   1
Atom  16C    basis set group =>   1
Atom  17C    basis set group =>   1
Atom  18C    basis set group =>   1
Atom  19C    basis set group =>   1
Atom  20C    basis set group =>   1
Atom  21C    basis set group =>   1
Atom  22C    basis set group =>   1
Atom  23C    basis set group =>   1
Atom  24H    basis set group =>   2
Atom  25H    basis set group =>   2
Atom  26H    basis set group =>   2
Atom  27H    basis set group =>   2
Atom  28H    basis set group =>   2
Atom  29H    basis set group =>   2
Atom  30H    basis set group =>   2
Atom  31H    basis set group =>   2
Atom  32H    basis set group =>   2


           ************************************************************
           *        Program running with 5 parallel MPI-processes     *
           *              working on a common directory               *
           ************************************************************
------------------------------------------------------------------------------
                           ORCA GTO INTEGRAL CALCULATION
                           -- RI-GTO INTEGRALS CHOSEN --
------------------------------------------------------------------------------
------------------------------------------------------------------------------
                   ___                                                        
                  /   \      - P O W E R E D   B Y -                         
                 /     \                                                     
                 |  |  |   _    _      __       _____    __    __             
                 |  |  |  | |  | |    /  \     |  _  \  |  |  /  |          
                  \  \/   | |  | |   /    \    | | | |  |  | /  /          
                 / \  \   | |__| |  /  /\  \   | |_| |  |  |/  /          
                |  |  |   |  __  | /  /__\  \  |    /   |      \           
                |  |  |   | |  | | |   __   |  |    \   |  |\   \          
                \     /   | |  | | |  |  |  |  | |\  \  |  | \   \       
                 \___/    |_|  |_| |__|  |__|  |_| \__\ |__|  \__/        
                                                                              
                      - O R C A' S   B I G   F R I E N D -                    
                                      &                                       
                       - I N T E G R A L  F E E D E R -                       
                                                                              
 v1 FN, 2020, v2 2021                                                         
------------------------------------------------------------------------------


Reading SHARK input file eight_seven_ten_position.SHARKINP.tmp ... ok
----------------------
SHARK INTEGRAL PACKAGE
----------------------

Number of atoms                             ...     33
Number of basis functions                   ...    798
Number of shells                            ...    300
Maximum angular momentum                    ...      3
Integral batch strategy                     ... SHARK/LIBINT Hybrid
RI-J (if used) integral strategy            ... SPLIT-RIJ (Revised 2003 algorithm where possible)
Printlevel                                  ...      1
Contraction scheme used                     ... SEGMENTED contraction
Coulomb Range Separation                    ... NOT USED
Exchange Range Separation                   ... NOT USED
Finite Nucleus Model                        ... NOT USED
Auxiliary Coulomb fitting basis             ... AVAILABLE
   # of basis functions in Aux-J            ...   1275
   # of shells in Aux-J                     ...    405
   Maximum angular momentum in Aux-J        ...      4
Auxiliary J/K fitting basis                 ... NOT available
Auxiliary Correlation fitting basis         ... NOT available
Auxiliary 'external' fitting basis          ... NOT available
Integral threshold                          ...     2.500000e-11
Primitive cut-off                           ...     2.500000e-12
Primitive pair pre-selection threshold      ...     2.500000e-12

Calculating pre-screening integrals         ... done (  0.1 sec) Dimension = 300
Organizing shell pair data                  ... done (  1.2 sec)
Shell pair information
Total number of shell pairs                 ...     45150
Shell pairs after pre-screening             ...     34945
Total number of primitive shell pairs       ...    143400
Primitive shell pairs kept                  ...     74117
          la=0 lb=0:   7784 shell pairs
          la=1 lb=0:   9581 shell pairs
          la=1 lb=1:   2888 shell pairs
          la=2 lb=0:   5307 shell pairs
          la=2 lb=1:   3261 shell pairs
          la=2 lb=2:    933 shell pairs
          la=3 lb=0:   2490 shell pairs
          la=3 lb=1:   1581 shell pairs
          la=3 lb=2:    886 shell pairs
          la=3 lb=3:    234 shell pairs

Calculating one electron integrals          ... done (  0.1 sec)
Calculating RI/J V-Matrix + Cholesky decomp.... done (  0.1 sec)
Calculating Nuclear repulsion               ... done (  0.0 sec) ENN=   1783.178773582133 Eh

SHARK setup successfully completed in   2.8 seconds

Maximum memory used throughout the entire GTOINT-calculation: 51.6 MB


           ************************************************************
           *        Program running with 5 parallel MPI-processes     *
           *              working on a common directory               *
           ************************************************************
-------------------------------------------------------------------------------
                                 ORCA SCF
-------------------------------------------------------------------------------

------------
SCF SETTINGS
------------
Hamiltonian:
 Density Functional     Method          .... DFT(GTOs)
 Exchange Functional    Exchange        .... M062X
 Correlation Functional Correlation     .... M062X
 Gradients option       PostSCFGGA      .... off
 Hybrid DFT is turned on
   Fraction HF Exchange ScalHFX         ....  0.540000
   Scaling of DF-GGA-X  ScalDFX         ....  0.460000
   Scaling of DF-GGA-C  ScalDFC         ....  1.000000
   Scaling of DF-LDA-C  ScalLDAC        ....  1.000000
   Perturbative correction              ....  0.000000
   Density functional embedding theory  .... OFF
 RI-approximation to the Coulomb term is turned on
   Number of AuxJ basis functions       .... 1275
   RIJ-COSX (HFX calculated with COS-X)).... on


General Settings:
 Integral files         IntName         .... eight_seven_ten_position
 Hartree-Fock type      HFTyp           .... UHF
 Total Charge           Charge          ....    0
 Multiplicity           Mult            ....    2
 Number of Electrons    NEL             ....  153
 Basis Dimension        Dim             ....  798
 Nuclear Repulsion      ENuc            ....   1783.1787735821 Eh

Convergence Acceleration:
 DIIS                   CNVDIIS         .... on
   Start iteration      DIISMaxIt       ....    12
   Startup error        DIISStart       ....  0.200000
   # of expansion vecs  DIISMaxEq       ....     5
   Bias factor          DIISBfac        ....   1.050
   Max. coefficient     DIISMaxC        ....  10.000
 Trust-Rad. Augm. Hess. CNVTRAH         .... auto
   Auto Start mean grad. ratio tolernc. ....  1.125000
   Auto Start start iteration           ....    20
   Auto Start num. interpolation iter.  ....    10
   Max. Number of Micro iterations      ....    16
   Max. Number of Macro iterations      .... Maxiter - #DIIS iter
   Number of Davidson start vectors     ....     2
   Converg. threshold I  (grad. norm)   ....   1.000e-05
   Converg. threshold II (energy diff.) ....   1.000e-08
   Grad. Scal. Fac. for Micro threshold ....   0.100
   Minimum threshold for Micro iter.    ....   0.010
   NR start threshold (gradient norm)   ....   0.001
   Initial trust radius                 ....   0.400
   Minimum AH scaling param. (alpha)    ....   1.000
   Maximum AH scaling param. (alpha)    .... 1000.000
   Orbital update algorithm             .... Taylor
   White noise on init. David. guess    .... on
   Maximum white noise                  ....   0.010
   Quad. conv. algorithm                .... NR
 SOSCF                  CNVSOSCF        .... off
 Level Shifting         CNVShift        .... on
   Level shift para.    LevelShift      ....    0.2500
   Turn off err/grad.   ShiftErr        ....    0.0010
 Zerner damping         CNVZerner       .... off
 Static damping         CNVDamp         .... on
   Fraction old density DampFac         ....    0.7000
   Max. Damping (<1)    DampMax         ....    0.9800
   Min. Damping (>=0)   DampMin         ....    0.0000
   Turn off err/grad.   DampErr         ....    0.1000
 Fernandez-Rico         CNVRico         .... off

SCF Procedure:
 Maximum # iterations   MaxIter         ....   125
 SCF integral mode      SCFMode         .... Direct
   Integral package                     .... SHARK and LIBINT hybrid scheme
 Reset frequency        DirectResetFreq ....    20
 Integral Threshold     Thresh          ....  2.500e-11 Eh
 Primitive CutOff       TCut            ....  2.500e-12 Eh

Convergence Tolerance:
 Convergence Check Mode ConvCheckMode   .... Total+1el-Energy
 Convergence forced     ConvForced      .... 0
 Energy Change          TolE            ....  1.000e-08 Eh
 1-El. energy change                    ....  1.000e-05 Eh
 DIIS Error             TolErr          ....  5.000e-07


Diagonalization of the overlap matrix:
Smallest eigenvalue                        ... 6.717e-07
Time for diagonalization                   ...    0.066 sec
Threshold for overlap eigenvalues          ... 1.000e-08
Number of eigenvalues below threshold      ... 0
Time for construction of square roots      ...    0.072 sec
Total time needed                          ...    0.140 sec

Time for model grid setup =    0.360 sec

------------------------------
INITIAL GUESS: MODEL POTENTIAL
------------------------------
Loading Hartree-Fock densities                     ... done
Calculating cut-offs                               ... done
Initializing the effective Hamiltonian             ... done
Setting up the integral package (SHARK)            ... done
Starting the Coulomb interaction                   ... done (   0.7 sec)
Reading the grid                                   ... done
Mapping shells                                     ... done
Starting the XC term evaluation                    ... done (   0.7 sec)
  promolecular density results
     # of electrons  =    152.982847566
     EX              =   -125.495968833
     EC              =     -5.186535161
     EX+EC           =   -130.682503994
Transforming the Hamiltonian                       ... done (   0.1 sec)
Diagonalizing the Hamiltonian                      ... done (   0.1 sec)
Back transforming the eigenvectors                 ... done (   0.0 sec)
Now organizing SCF variables                       ... done
                      ------------------
                      INITIAL GUESS DONE (   2.0 sec)
                      ------------------
-------------------
DFT GRID GENERATION
-------------------

General Integration Accuracy     IntAcc      ... 4.388
Radial Grid Type                 RadialGrid  ... OptM3 with GC (2021)
Angular Grid (max. ang.)         AngularGrid ... 4 (Lebedev-302)
Angular grid pruning method      GridPruning ... 4 (adaptive)
Weight generation scheme         WeightScheme... Becke
Basis function cutoff            BFCut       ... 1.0000e-11
Integration weight cutoff        WCut        ... 1.0000e-14
Angular grids for H and He will be reduced by one unit
Partially contracted basis set               ... off
Rotationally invariant grid construction     ... off

Total number of grid points                  ...   171080
Total number of batches                      ...     2688
Average number of points per batch           ...       63
Average number of grid points per atom       ...     5184
Time for grid setup =    1.214 sec

--------------------
COSX GRID GENERATION
--------------------

GRIDX 1
-------
General Integration Accuracy     IntAcc      ... 3.816
Radial Grid Type                 RadialGrid  ... OptM3 with GC (2021)
Angular Grid (max. ang.)         AngularGrid ... 1 (Lebedev-50)
Angular grid pruning method      GridPruning ... 4 (adaptive)
Weight generation scheme         WeightScheme... Becke
Basis function cutoff            BFCut       ... 1.0000e-11
Integration weight cutoff        WCut        ... 1.0000e-14
Angular grids for H and He will be reduced by one unit
Partially contracted basis set               ... on
Rotationally invariant grid construction     ... off

Total number of grid points                  ...    21748
Total number of batches                      ...      356
Average number of points per batch           ...       61
Average number of grid points per atom       ...      659
UseSFitting                                  ... on

GRIDX 2
-------
General Integration Accuracy     IntAcc      ... 4.020
Radial Grid Type                 RadialGrid  ... OptM3 with GC (2021)
Angular Grid (max. ang.)         AngularGrid ... 2 (Lebedev-110)
Angular grid pruning method      GridPruning ... 4 (adaptive)
Weight generation scheme         WeightScheme... Becke
Basis function cutoff            BFCut       ... 1.0000e-11
Integration weight cutoff        WCut        ... 1.0000e-14
Angular grids for H and He will be reduced by one unit
Partially contracted basis set               ... on
Rotationally invariant grid construction     ... off

Total number of grid points                  ...    48352
Total number of batches                      ...      774
Average number of points per batch           ...       62
Average number of grid points per atom       ...     1465
UseSFitting                                  ... on

GRIDX 3
-------
General Integration Accuracy     IntAcc      ... 4.338
Radial Grid Type                 RadialGrid  ... OptM3 with GC (2021)
Angular Grid (max. ang.)         AngularGrid ... 3 (Lebedev-194)
Angular grid pruning method      GridPruning ... 4 (adaptive)
Weight generation scheme         WeightScheme... Becke
Basis function cutoff            BFCut       ... 1.0000e-11
Integration weight cutoff        WCut        ... 1.0000e-14
Angular grids for H and He will be reduced by one unit
Partially contracted basis set               ... on
Rotationally invariant grid construction     ... off

Total number of grid points                  ...   106489
Total number of batches                      ...     1680
Average number of points per batch           ...       63
Average number of grid points per atom       ...     3227
UseSFitting                                  ... on

Time for X-Grid setup             =    3.308 sec

--------------
SCF ITERATIONS
--------------
ITER       Energy         Delta-E        Max-DP      RMS-DP      [F,P]     Damp
               ***  Starting incremental Fock matrix formation  ***
  0   -919.4199072869   0.000000000000 0.06788167  0.00079189  0.0714151 0.7000
  1   -919.5791395991  -0.159232312233 0.05850627  0.00066475  0.0425560 0.7000
                               ***Turning on DIIS***
  2   -919.6666640968  -0.087524497687 0.14775217  0.00162274  0.0217955 0.0000
  3   -919.8114130702  -0.144748973343 0.01690173  0.00027842  0.0181389 0.0000
  4   -919.8305673853  -0.019154315126 0.01713209  0.00014236  0.0052153 0.0000
  5   -919.8313107955  -0.000743410263 0.01228643  0.00008953  0.0026571 0.0000
  6   -919.8315227774  -0.000211981811 0.00970040  0.00007039  0.0019474 0.0000
  7   -919.8316285374  -0.000105760004 0.00438738  0.00003843  0.0009802 0.0000
               *** Restarting incremental Fock matrix formation ***
                                   *** Resetting DIIS ***
  8   -919.8313073288   0.000321208574 0.00673256  0.00010454  0.0004900 0.0000
  9   -919.8313157431  -0.000008414316 0.00064890  0.00000533  0.0003834 0.0000
 10   -919.8313218065  -0.000006063427 0.00090422  0.00000870  0.0002938 0.0000
 11   -919.8313260355  -0.000004228962 0.00043445  0.00000541  0.0001955 0.0000
 12   -919.8313281414  -0.000002105867 0.00025462  0.00000384  0.0000711 0.0000
 13   -919.8313288576  -0.000000716265 0.00008531  0.00000127  0.0000724 0.0000
 14   -919.8313289753  -0.000000117665 0.00019085  0.00000196  0.0000493 0.0000
 15   -919.8313290309  -0.000000055656 0.00009931  0.00000129  0.0000345 0.0000
 16   -919.8313290315  -0.000000000524 0.00018032  0.00000247  0.0000242 0.0000
 17   -919.8313290389  -0.000000007438 0.00008141  0.00000136  0.0000144 0.0000
 18   -919.8313290539  -0.000000014983 0.00008364  0.00000147  0.0000104 0.0000
 19   -919.8313290426   0.000000011284 0.00020490  0.00000203  0.0000073 0.0000
 20   -919.8313290586  -0.000000016021 0.00015048  0.00000175  0.0000059 0.0000
 21   -919.8313290605  -0.000000001887 0.00014065  0.00000180  0.0000049 0.0000
 22   -919.8313290492   0.000000011281 0.00012857  0.00000195  0.0000032 0.0000
                 **** Energy Check signals convergence ****

               *****************************************************
               *                     SUCCESS                       *
               *           SCF CONVERGED AFTER  23 CYCLES          *
               *****************************************************

Old exchange energy                            =    -69.026165863 Eh
New exchange energy                            =    -69.025998946 Eh
Exchange energy change after final integration =      0.000166917 Eh
Total energy after final integration           =   -919.831162126 Eh
Final COS-X integration done in                =    53.476 sec

----------------
TOTAL SCF ENERGY
----------------

Total Energy       :         -919.83116213 Eh          -25029.87842 eV

Components:
Nuclear Repulsion  :         1783.17877358 Eh           48522.76128 eV
Electronic Energy  :        -2703.00993571 Eh          -73552.63969 eV
One Electron Energy:        -4783.80947737 Eh         -130174.07380 eV
Two Electron Energy:         2080.79954166 Eh           56621.43411 eV
Max COSX asymmetry :            0.00000106 Eh               0.00003 eV

Virial components:
Potential Energy   :        -1835.14311862 Eh          -49936.78299 eV
Kinetic Energy     :          915.31195650 Eh           24906.90458 eV
Virial Ratio       :            2.00493734


DFT components:
N(Alpha)           :       77.000139234367 electrons
N(Beta)            :       76.000140301013 electrons
N(Total)           :      153.000279535379 electrons
E(XC)              :      -64.444484288070 Eh       
DFET-embed. en.    :        0.000000000000 Eh       

---------------
SCF CONVERGENCE
---------------

  Last Energy change         ...    6.1169e-09  Tolerance :   1.0000e-08
  Last MAX-Density change    ...    0.0000e+00  Tolerance :   1.0000e-07
  Last RMS-Density change    ...    0.0000e+00  Tolerance :   5.0000e-09
  Last DIIS Error            ...    1.1860e-06  Tolerance :   5.0000e-07

             **** THE GBW FILE WAS UPDATED (eight_seven_ten_position.gbw) ****
             **** DENSITY eight_seven_ten_position.scfp WAS UPDATED ****
             **** ENERGY FILE WAS UPDATED (eight_seven_ten_position.en.tmp) ****
----------------------
UHF SPIN CONTAMINATION
----------------------

Warning: in a DFT calculation there is little theoretical justification to 
         calculate <S**2> as in Hartree-Fock theory. We will do it anyways
         but you should keep in mind that the values have only limited relevance

Expectation value of <S**2>     :     0.765762
Ideal value S*(S+1) for S=0.5   :     0.750000
Deviation                       :     0.015762

             **** THE GBW FILE WAS UPDATED (eight_seven_ten_position.gbw) ****
             **** DENSITY eight_seven_ten_position.scfp WAS UPDATED ****
----------------
ORBITAL ENERGIES
----------------
                 SPIN UP ORBITALS
  NO   OCC          E(Eh)            E(eV) 
   0   1.0000     -10.591238      -288.2022 
   1   1.0000     -10.587236      -288.0933 
   2   1.0000     -10.586006      -288.0599 
   3   1.0000     -10.573017      -287.7064 
   4   1.0000     -10.572432      -287.6905 
   5   1.0000     -10.571246      -287.6582 
   6   1.0000     -10.569950      -287.6230 
   7   1.0000     -10.566716      -287.5350 
   8   1.0000     -10.564993      -287.4881 
   9   1.0000     -10.564001      -287.4611 
  10   1.0000     -10.563518      -287.4479 
  11   1.0000     -10.563038      -287.4349 
  12   1.0000     -10.562546      -287.4215 
  13   1.0000     -10.560749      -287.3726 
  14   1.0000     -10.556619      -287.2602 
  15   1.0000     -10.555624      -287.2331 
  16   1.0000     -10.554545      -287.2038 
  17   1.0000     -10.554513      -287.2029 
  18   1.0000     -10.554230      -287.1952 
  19   1.0000     -10.553536      -287.1763 
  20   1.0000     -10.553241      -287.1683 
  21   1.0000     -10.553123      -287.1651 
  22   1.0000     -10.552439      -287.1465 
  23   1.0000     -10.549971      -287.0793 
  24   1.0000      -1.030277       -28.0353 
  25   1.0000      -0.992144       -26.9976 
  26   1.0000      -0.991069       -26.9684 
  27   1.0000      -0.940910       -25.6035 
  28   1.0000      -0.939858       -25.5748 
  29   1.0000      -0.918552       -24.9951 
  30   1.0000      -0.889407       -24.2020 
  31   1.0000      -0.870272       -23.6813 
  32   1.0000      -0.853227       -23.2175 
  33   1.0000      -0.845341       -23.0029 
  34   1.0000      -0.818005       -22.2591 
  35   1.0000      -0.816672       -22.2228 
  36   1.0000      -0.733538       -19.9606 
  37   1.0000      -0.729644       -19.8546 
  38   1.0000      -0.727564       -19.7980 
  39   1.0000      -0.718926       -19.5630 
  40   1.0000      -0.716383       -19.4938 
  41   1.0000      -0.650927       -17.7126 
  42   1.0000      -0.634695       -17.2709 
  43   1.0000      -0.627253       -17.0684 
  44   1.0000      -0.616485       -16.7754 
  45   1.0000      -0.604532       -16.4502 
  46   1.0000      -0.600071       -16.3288 
  47   1.0000      -0.558572       -15.1995 
  48   1.0000      -0.551011       -14.9938 
  49   1.0000      -0.542179       -14.7534 
  50   1.0000      -0.529511       -14.4087 
  51   1.0000      -0.527526       -14.3547 
  52   1.0000      -0.519342       -14.1320 
  53   1.0000      -0.515134       -14.0175 
  54   1.0000      -0.502405       -13.6711 
  55   1.0000      -0.490580       -13.3494 
  56   1.0000      -0.486261       -13.2318 
  57   1.0000      -0.482368       -13.1259 
  58   1.0000      -0.474361       -12.9080 
  59   1.0000      -0.472643       -12.8613 
  60   1.0000      -0.466907       -12.7052 
  61   1.0000      -0.446768       -12.1572 
  62   1.0000      -0.437154       -11.8956 
  63   1.0000      -0.430896       -11.7253 
  64   1.0000      -0.414258       -11.2725 
  65   1.0000      -0.410593       -11.1728 
  66   1.0000      -0.399293       -10.8653 
  67   1.0000      -0.391995       -10.6667 
  68   1.0000      -0.390924       -10.6376 
  69   1.0000      -0.346077        -9.4172 
  70   1.0000      -0.345215        -9.3938 
  71   1.0000      -0.334885        -9.1127 
  72   1.0000      -0.319290        -8.6883 
  73   1.0000      -0.318894        -8.6775 
  74   1.0000      -0.316018        -8.5993 
  75   1.0000      -0.262334        -7.1385 
  76   1.0000      -0.261246        -7.1089 
  77   0.0000      -0.049414        -1.3446 
  78   0.0000      -0.040172        -1.0931 
  79   0.0000      -0.039004        -1.0613 
  80   0.0000      -0.002599        -0.0707 
  81   0.0000       0.003532         0.0961 
  82   0.0000       0.016082         0.4376 
  83   0.0000       0.051498         1.4013 
  84   0.0000       0.077356         2.1050 
  85   0.0000       0.085688         2.3317 
  86   0.0000       0.086288         2.3480 
  87   0.0000       0.094181         2.5628 
  88   0.0000       0.109609         2.9826 
  89   0.0000       0.111631         3.0376 
  90   0.0000       0.113744         3.0951 
  91   0.0000       0.117864         3.2072 
  92   0.0000       0.120794         3.2870 
  93   0.0000       0.127185         3.4609 
  94   0.0000       0.131350         3.5742 
  95   0.0000       0.135764         3.6943 
  96   0.0000       0.138174         3.7599 
  97   0.0000       0.150171         4.0864 
  98   0.0000       0.168193         4.5768 
  99   0.0000       0.176175         4.7940 
 100   0.0000       0.178669         4.8618 
 101   0.0000       0.182866         4.9760 
 102   0.0000       0.190712         5.1895 
 103   0.0000       0.196979         5.3601 
 104   0.0000       0.199155         5.4193 
 105   0.0000       0.206400         5.6164 
 106   0.0000       0.209823         5.7096 
 107   0.0000       0.213310         5.8045 
 108   0.0000       0.217707         5.9241 
 109   0.0000       0.232330         6.3220 
 110   0.0000       0.232554         6.3281 
 111   0.0000       0.238838         6.4991 
 112   0.0000       0.241418         6.5693 
 113   0.0000       0.245155         6.6710 
 114   0.0000       0.256718         6.9856 
 115   0.0000       0.262393         7.1401 
 116   0.0000       0.264847         7.2069 
 117   0.0000       0.268976         7.3192 
 118   0.0000       0.270249         7.3538 
 119   0.0000       0.277603         7.5540 
 120   0.0000       0.278107         7.5677 
 121   0.0000       0.280648         7.6368 
 122   0.0000       0.284365         7.7380 
 123   0.0000       0.284690         7.7468 
 124   0.0000       0.289480         7.8772 
 125   0.0000       0.301968         8.2170 
 126   0.0000       0.302746         8.2381 
 127   0.0000       0.305804         8.3214 
 128   0.0000       0.315512         8.5855 
 129   0.0000       0.317998         8.6532 
 130   0.0000       0.318062         8.6549 
 131   0.0000       0.320444         8.7197 
 132   0.0000       0.322775         8.7832 
 133   0.0000       0.326633         8.8881 
 134   0.0000       0.327049         8.8995 
 135   0.0000       0.334429         9.1003 
 136   0.0000       0.339663         9.2427 
 137   0.0000       0.352293         9.5864 
 138   0.0000       0.356403         9.6982 
 139   0.0000       0.357182         9.7194 
 140   0.0000       0.358443         9.7537 
 141   0.0000       0.361540         9.8380 
 142   0.0000       0.363975         9.9043 
 143   0.0000       0.371158        10.0997 
 144   0.0000       0.378277        10.2934 
 145   0.0000       0.381859        10.3909 
 146   0.0000       0.382386        10.4053 
 147   0.0000       0.385370        10.4864 
 148   0.0000       0.388864        10.5815 
 149   0.0000       0.392638        10.6842 
 150   0.0000       0.395488        10.7618 
 151   0.0000       0.400949        10.9104 
 152   0.0000       0.405880        11.0445 
 153   0.0000       0.412208        11.2167 
 154   0.0000       0.416628        11.3370 
 155   0.0000       0.417509        11.3610 
 156   0.0000       0.424709        11.5569 
 157   0.0000       0.427882        11.6433 
 158   0.0000       0.429499        11.6873 
 159   0.0000       0.438056        11.9201 
 160   0.0000       0.440226        11.9792 
 161   0.0000       0.452134        12.3032 
 162   0.0000       0.459609        12.5066 
 163   0.0000       0.461430        12.5562 
 164   0.0000       0.461858        12.5678 
 165   0.0000       0.465335        12.6624 
 166   0.0000       0.471359        12.8263 
 167   0.0000       0.472171        12.8484 
 168   0.0000       0.474265        12.9054 
 169   0.0000       0.491713        13.3802 
 170   0.0000       0.494880        13.4664 
 171   0.0000       0.508276        13.8309 
 172   0.0000       0.509546        13.8655 
 173   0.0000       0.512143        13.9361 
 174   0.0000       0.514462        13.9992 
 175   0.0000       0.517228        14.0745 
 176   0.0000       0.522290        14.2122 
 177   0.0000       0.533641        14.5211 
 178   0.0000       0.541982        14.7481 
 179   0.0000       0.542682        14.7671 
 180   0.0000       0.550050        14.9676 
 181   0.0000       0.551844        15.0164 
 182   0.0000       0.553485        15.0611 
 183   0.0000       0.553939        15.0734 
 184   0.0000       0.554915        15.1000 
 185   0.0000       0.566953        15.4276 
 186   0.0000       0.575774        15.6676 
 187   0.0000       0.583257        15.8712 
 188   0.0000       0.590678        16.0732 
 189   0.0000       0.591742        16.1021 
 190   0.0000       0.604745        16.4559 
 191   0.0000       0.619521        16.8580 
 192   0.0000       0.632200        17.2030 
 193   0.0000       0.633671        17.2431 
 194   0.0000       0.634272        17.2594 
 195   0.0000       0.637018        17.3341 
 196   0.0000       0.640403        17.4263 
 197   0.0000       0.644201        17.5296 
 198   0.0000       0.650225        17.6935 
 199   0.0000       0.658237        17.9115 
 200   0.0000       0.658293        17.9131 
 201   0.0000       0.659208        17.9379 
 202   0.0000       0.663877        18.0650 
 203   0.0000       0.670768        18.2525 
 204   0.0000       0.672024        18.2867 
 205   0.0000       0.683828        18.6079 
 206   0.0000       0.684202        18.6181 
 207   0.0000       0.692918        18.8553 
 208   0.0000       0.696984        18.9659 
 209   0.0000       0.697969        18.9927 
 210   0.0000       0.706181        19.2162 
 211   0.0000       0.715564        19.4715 
 212   0.0000       0.727188        19.7878 
 213   0.0000       0.728245        19.8166 
 214   0.0000       0.731031        19.8924 
 215   0.0000       0.744396        20.2561 
 216   0.0000       0.750993        20.4356 
 217   0.0000       0.757779        20.6202 
 218   0.0000       0.762513        20.7490 
 219   0.0000       0.766870        20.8676 
 220   0.0000       0.767136        20.8748 
 221   0.0000       0.769263        20.9327 
 222   0.0000       0.781051        21.2535 
 223   0.0000       0.783421        21.3180 
 224   0.0000       0.787309        21.4238 
 225   0.0000       0.789833        21.4924 
 226   0.0000       0.794378        21.6161 
 227   0.0000       0.796170        21.6649 
 228   0.0000       0.799939        21.7674 
 229   0.0000       0.802553        21.8386 
 230   0.0000       0.811647        22.0860 
 231   0.0000       0.817356        22.2414 
 232   0.0000       0.820960        22.3394 
 233   0.0000       0.825318        22.4580 
 234   0.0000       0.833075        22.6691 
 235   0.0000       0.838948        22.8289 
 236   0.0000       0.845597        23.0099 
 237   0.0000       0.855901        23.2902 
 238   0.0000       0.862918        23.4812 
 239   0.0000       0.863914        23.5083 
 240   0.0000       0.867455        23.6046 
 241   0.0000       0.873222        23.7616 
 242   0.0000       0.874532        23.7972 
 243   0.0000       0.879351        23.9283 
 244   0.0000       0.885114        24.0852 
 245   0.0000       0.898004        24.4359 
 246   0.0000       0.900532        24.5047 
 247   0.0000       0.905294        24.6343 
 248   0.0000       0.907020        24.6813 
 249   0.0000       0.914176        24.8760 
 250   0.0000       0.920688        25.0532 
 251   0.0000       0.921637        25.0790 
 252   0.0000       0.924363        25.1532 
 253   0.0000       0.935381        25.4530 
 254   0.0000       0.951869        25.9017 
 255   0.0000       0.953262        25.9396 
 256   0.0000       0.957663        26.0593 
 257   0.0000       0.968800        26.3624 
 258   0.0000       0.987346        26.8671 
 259   0.0000       0.996897        27.1269 
 260   0.0000       0.997520        27.1439 
 261   0.0000       1.008106        27.4320 
 262   0.0000       1.014654        27.6101 
 263   0.0000       1.026955        27.9449 
 264   0.0000       1.030288        28.0356 
 265   0.0000       1.042410        28.3654 
 266   0.0000       1.054146        28.6848 
 267   0.0000       1.059795        28.8385 
 268   0.0000       1.069026        29.0897 
 269   0.0000       1.079854        29.3843 
 270   0.0000       1.083198        29.4753 
 271   0.0000       1.085444        29.5364 
 272   0.0000       1.091356        29.6973 
 273   0.0000       1.094682        29.7878 
 274   0.0000       1.103221        30.0202 
 275   0.0000       1.108672        30.1685 
 276   0.0000       1.115944        30.3664 
 277   0.0000       1.133225        30.8366 
 278   0.0000       1.146744        31.2045 
 279   0.0000       1.148525        31.2530 
 280   0.0000       1.172397        31.9026 
 281   0.0000       1.186892        32.2970 
 282   0.0000       1.202976        32.7346 
 283   0.0000       1.211695        32.9719 
 284   0.0000       1.216110        33.0920 
 285   0.0000       1.217234        33.1226 
 286   0.0000       1.227666        33.4065 
 287   0.0000       1.231310        33.5056 
 288   0.0000       1.239213        33.7207 
 289   0.0000       1.243021        33.8243 
 290   0.0000       1.247669        33.9508 
 291   0.0000       1.251255        34.0484 
 292   0.0000       1.251410        34.0526 
 293   0.0000       1.265864        34.4459 
 294   0.0000       1.278208        34.7818 
 295   0.0000       1.280150        34.8347 
 296   0.0000       1.282766        34.9058 
 297   0.0000       1.287510        35.0349 
 298   0.0000       1.295075        35.2408 
 299   0.0000       1.302777        35.4504 
 300   0.0000       1.306327        35.5470 
 301   0.0000       1.308449        35.6047 
 302   0.0000       1.313299        35.7367 
 303   0.0000       1.322060        35.9751 
 304   0.0000       1.325582        36.0709 
 305   0.0000       1.339280        36.4437 
 306   0.0000       1.356733        36.9186 
 307   0.0000       1.362322        37.0707 
 308   0.0000       1.366322        37.1795 
 309   0.0000       1.372136        37.3377 
 310   0.0000       1.373737        37.3813 
 311   0.0000       1.376512        37.4568 
 312   0.0000       1.392779        37.8994 
 313   0.0000       1.392890        37.9025 
 314   0.0000       1.404196        38.2101 
 315   0.0000       1.415672        38.5224 
 316   0.0000       1.417806        38.5805 
 317   0.0000       1.418816        38.6080 
 318   0.0000       1.430895        38.9366 
 319   0.0000       1.431493        38.9529 
 320   0.0000       1.434083        39.0234 
 321   0.0000       1.441703        39.2307 
 322   0.0000       1.461342        39.7651 
 323   0.0000       1.474342        40.1189 
 324   0.0000       1.481416        40.3114 
 325   0.0000       1.488044        40.4917 
 326   0.0000       1.492081        40.6016 
 327   0.0000       1.496023        40.7089 
 328   0.0000       1.510801        41.1110 
 329   0.0000       1.514190        41.2032 
 330   0.0000       1.523281        41.4506 
 331   0.0000       1.535852        41.7927 
 332   0.0000       1.539272        41.8857 
 333   0.0000       1.541062        41.9344 
 334   0.0000       1.542917        41.9849 
 335   0.0000       1.546508        42.0826 
 336   0.0000       1.566046        42.6143 
 337   0.0000       1.572161        42.7807 
 338   0.0000       1.572869        42.7999 
 339   0.0000       1.578385        42.9501 
 340   0.0000       1.591641        43.3108 
 341   0.0000       1.594245        43.3816 
 342   0.0000       1.596157        43.4336 
 343   0.0000       1.605637        43.6916 
 344   0.0000       1.609723        43.8028 
 345   0.0000       1.622467        44.1496 
 346   0.0000       1.625177        44.2233 
 347   0.0000       1.630706        44.3738 
 348   0.0000       1.647157        44.8214 
 349   0.0000       1.651658        44.9439 
 350   0.0000       1.652270        44.9605 
 351   0.0000       1.656413        45.0733 
 352   0.0000       1.662479        45.2384 
 353   0.0000       1.668018        45.3891 
 354   0.0000       1.670016        45.4434 
 355   0.0000       1.689357        45.9698 
 356   0.0000       1.697099        46.1804 
 357   0.0000       1.710766        46.5523 
 358   0.0000       1.718414        46.7604 
 359   0.0000       1.722869        46.8816 
 360   0.0000       1.725668        46.9578 
 361   0.0000       1.726923        46.9920 
 362   0.0000       1.735261        47.2188 
 363   0.0000       1.737281        47.2738 
 364   0.0000       1.742851        47.4254 
 365   0.0000       1.749083        47.5950 
 366   0.0000       1.750750        47.6403 
 367   0.0000       1.757499        47.8240 
 368   0.0000       1.764459        48.0134 
 369   0.0000       1.777057        48.3562 
 370   0.0000       1.784360        48.5549 
 371   0.0000       1.788490        48.6673 
 372   0.0000       1.795757        48.8650 
 373   0.0000       1.818330        49.4793 
 374   0.0000       1.825402        49.6717 
 375   0.0000       1.828222        49.7484 
 376   0.0000       1.834654        49.9235 
 377   0.0000       1.876073        51.0505 
 378   0.0000       1.888726        51.3948 
 379   0.0000       1.888807        51.3971 
 380   0.0000       1.907651        51.9098 
 381   0.0000       1.914386        52.0931 
 382   0.0000       1.925709        52.4012 
 383   0.0000       1.931693        52.5640 
 384   0.0000       1.942366        52.8545 
 385   0.0000       1.951548        53.1043 
 386   0.0000       1.954351        53.1806 
 387   0.0000       1.963477        53.4289 
 388   0.0000       1.968673        53.5703 
 389   0.0000       1.985191        54.0198 
 390   0.0000       1.996907        54.3386 
 391   0.0000       1.997821        54.3635 
 392   0.0000       2.006547        54.6009 
 393   0.0000       2.016726        54.8779 
 394   0.0000       2.033267        55.3280 
 395   0.0000       2.040852        55.5344 
 396   0.0000       2.041495        55.5519 
 397   0.0000       2.044417        55.6314 
 398   0.0000       2.078657        56.5631 
 399   0.0000       2.084104        56.7114 
 400   0.0000       2.108902        57.3862 
[...]
-----------------------------------------------------------------------
Final Gibbs free energy         ...   -923.37122095 Eh

For completeness - the Gibbs free energy minus the electronic energy
G-E(el)                           ...     -3.53770898 Eh  -2219.94 kcal/mol


The first frequency considered to be a vibration is 6
The total number of vibrations considered is 93


--------------------------
THERMOCHEMISTRY AT 8000.00K
--------------------------

Temperature         ... 8000.00 K
Pressure            ... 1.00 atm
Total Mass          ... 297.34 AMU

Throughout the following assumptions are being made:
  (1) The electronic state is orbitally nondegenerate
      but the spin degeneracy is treated
  (2) There are no thermally accessible electronically excited states
  (3) Hindered rotations indicated by low frequency modes are not
      treated as such but are treated as vibrations and this may
      cause some error
  (4) All equations used are the standard statistical mechanics
      equations for an ideal gas
  (5) All vibrations are strictly harmonic

freq.      88.58  E(vib)   ...      15.77 
freq.      90.17  E(vib)   ...      15.77 
freq.     130.04  E(vib)   ...      15.71 
freq.     169.54  E(vib)   ...      15.66 
freq.     228.83  E(vib)   ...      15.57 
freq.     296.97  E(vib)   ...      15.48 
freq.     305.35  E(vib)   ...      15.47 
freq.     311.80  E(vib)   ...      15.46 
freq.     329.41  E(vib)   ...      15.43 
freq.     358.00  E(vib)   ...      15.39 
freq.     368.82  E(vib)   ...      15.38 
freq.     389.64  E(vib)   ...      15.35 
freq.     396.31  E(vib)   ...      15.34 
freq.     444.80  E(vib)   ...      15.27 
freq.     452.86  E(vib)   ...      15.26 
freq.     466.10  E(vib)   ...      15.24 
freq.     476.37  E(vib)   ...      15.23 
freq.     497.40  E(vib)   ...      15.20 
freq.     502.06  E(vib)   ...      15.19 
freq.     508.51  E(vib)   ...      15.18 
freq.     512.35  E(vib)   ...      15.18 
freq.     541.81  E(vib)   ...      15.14 
freq.     570.03  E(vib)   ...      15.10 
freq.     584.55  E(vib)   ...      15.08 
freq.     587.62  E(vib)   ...      15.07 
freq.     641.85  E(vib)   ...      15.00 
freq.     654.26  E(vib)   ...      14.98 
freq.     681.97  E(vib)   ...      14.94 
freq.     683.85  E(vib)   ...      14.94 
freq.     688.66  E(vib)   ...      14.93 
freq.     697.11  E(vib)   ...      14.92 
freq.     744.88  E(vib)   ...      14.86 
freq.     770.81  E(vib)   ...      14.82 
freq.     793.37  E(vib)   ...      14.79 
freq.     802.37  E(vib)   ...      14.78 
freq.     838.15  E(vib)   ...      14.73 
freq.     839.13  E(vib)   ...      14.73 
freq.     841.53  E(vib)   ...      14.73 
freq.     855.39  E(vib)   ...      14.71 
freq.     871.64  E(vib)   ...      14.68 
freq.     879.04  E(vib)   ...      14.67 
freq.     886.39  E(vib)   ...      14.66 
freq.     913.15  E(vib)   ...      14.63 
freq.     951.02  E(vib)   ...      14.58 
freq.     982.34  E(vib)   ...      14.54 
freq.     991.05  E(vib)   ...      14.52 
freq.     998.25  E(vib)   ...      14.51 
freq.    1002.06  E(vib)   ...      14.51 
freq.    1004.65  E(vib)   ...      14.51 
freq.    1015.72  E(vib)   ...      14.49 
freq.    1055.22  E(vib)   ...      14.44 
freq.    1142.77  E(vib)   ...      14.32 
freq.    1158.91  E(vib)   ...      14.30 
freq.    1168.21  E(vib)   ...      14.29 
freq.    1173.52  E(vib)   ...      14.28 
freq.    1192.59  E(vib)   ...      14.25 
freq.    1214.40  E(vib)   ...      14.23 
freq.    1222.42  E(vib)   ...      14.21 
freq.    1252.34  E(vib)   ...      14.17 
freq.    1253.75  E(vib)   ...      14.17 
freq.    1256.77  E(vib)   ...      14.17 
freq.    1295.83  E(vib)   ...      14.12 
freq.    1306.92  E(vib)   ...      14.10 
freq.    1344.41  E(vib)   ...      14.05 
freq.    1365.53  E(vib)   ...      14.03 
freq.    1376.86  E(vib)   ...      14.01 
freq.    1396.34  E(vib)   ...      13.99 
freq.    1410.88  E(vib)   ...      13.97 
freq.    1440.03  E(vib)   ...      13.93 
freq.    1450.29  E(vib)   ...      13.91 
freq.    1466.71  E(vib)   ...      13.89 
freq.    1472.28  E(vib)   ...      13.89 
freq.    1479.16  E(vib)   ...      13.88 
freq.    1514.53  E(vib)   ...      13.83 
freq.    1534.51  E(vib)   ...      13.81 
freq.    1553.56  E(vib)   ...      13.78 
freq.    1582.15  E(vib)   ...      13.74 
freq.    1590.46  E(vib)   ...      13.73 
freq.    1604.23  E(vib)   ...      13.71 
freq.    1662.09  E(vib)   ...      13.64 
freq.    1679.67  E(vib)   ...      13.62 
freq.    1692.21  E(vib)   ...      13.60 
freq.    1695.10  E(vib)   ...      13.60 
freq.    2124.58  E(vib)   ...      13.05 
freq.    3203.81  E(vib)   ...      11.76 
freq.    3204.78  E(vib)   ...      11.75 
freq.    3209.96  E(vib)   ...      11.75 
freq.    3211.92  E(vib)   ...      11.75 
freq.    3220.22  E(vib)   ...      11.74 
freq.    3221.30  E(vib)   ...      11.74 
freq.    3224.91  E(vib)   ...      11.73 
freq.    3230.26  E(vib)   ...      11.72 
freq.    3238.56  E(vib)   ...      11.72 

------------
INNER ENERGY
------------

The inner energy is: U= E(el) + E(ZPE) + E(vib) + E(rot) + E(trans)
    E(el)   - is the total energy from the electronic structure calculation
              = E(kin-el) + E(nuc-el) + E(el-el) + E(nuc-nuc)
    E(ZPE)  - the the zero temperature vibrational energy from the frequency calculation
    E(vib)  - the the finite temperature correction to E(ZPE) due to population
              of excited vibrational states
    E(rot)  - is the rotational thermal energy
    E(trans)- is the translational thermal energy

Summary of contributions to the inner energy U:
Electronic energy                ...   -919.83351198 Eh
Zero point energy                ...      0.24543042 Eh     154.01 kcal/mol
Thermal vibrational correction   ...      2.12334368 Eh    1332.42 kcal/mol
Thermal rotational correction    ...      0.03800158 Eh      23.85 kcal/mol
Thermal translational correction ...      0.03800158 Eh      23.85 kcal/mol
-----------------------------------------------------------------------
Total thermal energy                   -917.38873472 Eh


Summary of corrections to the electronic energy:
(perhaps to be used in another calculation)
Total thermal correction                  2.19934684 Eh    1380.11 kcal/mol
Non-thermal (ZPE) correction              0.24543042 Eh     154.01 kcal/mol
-----------------------------------------------------------------------
Total correction                          2.44477726 Eh    1534.12 kcal/mol


--------
ENTHALPY
--------

The enthalpy is H = U + kB*T
                kB is Boltzmann's constant
Total free energy                 ...   -917.38873472 Eh 
Thermal Enthalpy correction       ...      0.02533514 Eh      15.90 kcal/mol
-----------------------------------------------------------------------
Total Enthalpy                    ...   -917.36339958 Eh


Note: Rotational entropy computed according to Herzberg 
Infrared and Raman Spectra, Chapter V,1, Van Nostrand Reinhold, 1945 
Point Group:  Cs, Symmetry Number:   1  
Rotational constants in cm-1:     0.011734     0.011305     0.005758 

Vibrational entropy computed according to the QRRHO of S. Grimme
Chem.Eur.J. 2012 18 9955


-------
ENTROPY
-------

The entropy contributions are T*S = T*(S(el)+S(vib)+S(rot)+S(trans))
     S(el)   - electronic entropy
     S(vib)  - vibrational entropy
     S(rot)  - rotational entropy
     S(trans)- translational entropy
The entropies will be listed as multiplied by the temperature to get
units of energy

Electronic entropy                ...      0.01756046 Eh     11.02 kcal/mol
Vibrational entropy               ...      6.56037704 Eh   4116.69 kcal/mol
Rotational entropy                ...      0.55862254 Eh    350.54 kcal/mol
Translational entropy             ...      0.75611570 Eh    474.47 kcal/mol
-----------------------------------------------------------------------
Final entropy term                ...      7.89267574 Eh   4952.72 kcal/mol

In case the symmetry of your molecule has not been determined correctly
or in case you have a reason to use a different symmetry number we print 
out the resulting rotational entropy values for sn=1,12 :
 --------------------------------------------------------
|  sn= 1 | S(rot)=       0.55862254 Eh    350.54 kcal/mol|
|  sn= 2 | S(rot)=       0.54106208 Eh    339.52 kcal/mol|
|  sn= 3 | S(rot)=       0.53078987 Eh    333.07 kcal/mol|
|  sn= 4 | S(rot)=       0.52350162 Eh    328.50 kcal/mol|
|  sn= 5 | S(rot)=       0.51784841 Eh    324.95 kcal/mol|
|  sn= 6 | S(rot)=       0.51322941 Eh    322.06 kcal/mol|
|  sn= 7 | S(rot)=       0.50932409 Eh    319.60 kcal/mol|
|  sn= 8 | S(rot)=       0.50594116 Eh    317.48 kcal/mol|
|  sn= 9 | S(rot)=       0.50295720 Eh    315.61 kcal/mol|
|  sn=10 | S(rot)=       0.50028795 Eh    313.93 kcal/mol|
|  sn=11 | S(rot)=       0.49787333 Eh    312.42 kcal/mol|
|  sn=12 | S(rot)=       0.49566895 Eh    311.04 kcal/mol|
 --------------------------------------------------------


-------------------
GIBBS FREE ENERGY
-------------------

The Gibbs free energy is G = H - T*S

Total enthalpy                    ...   -917.36339958 Eh 
Total entropy correction          ...     -7.89267574 Eh  -4952.72 kcal/mol
-----------------------------------------------------------------------
Final Gibbs free energy         ...   -925.25607532 Eh

For completeness - the Gibbs free energy minus the electronic energy
G-E(el)                           ...     -5.42256334 Eh  -3402.70 kcal/mol


The first frequency considered to be a vibration is 6
The total number of vibrations considered is 93


--------------------------
THERMOCHEMISTRY AT 10000.00K
--------------------------

Temperature         ... 10000.00 K
Pressure            ... 1.00 atm
Total Mass          ... 297.34 AMU

Throughout the following assumptions are being made:
  (1) The electronic state is orbitally nondegenerate
      but the spin degeneracy is treated
  (2) There are no thermally accessible electronically excited states
  (3) Hindered rotations indicated by low frequency modes are not
      treated as such but are treated as vibrations and this may
      cause some error
  (4) All equations used are the standard statistical mechanics
      equations for an ideal gas
  (5) All vibrations are strictly harmonic

freq.      88.58  E(vib)   ...      19.75 
freq.      90.17  E(vib)   ...      19.74 
freq.     130.04  E(vib)   ...      19.69 
freq.     169.54  E(vib)   ...      19.63 
freq.     228.83  E(vib)   ...      19.55 
freq.     296.97  E(vib)   ...      19.45 
freq.     305.35  E(vib)   ...      19.44 
freq.     311.80  E(vib)   ...      19.43 
freq.     329.41  E(vib)   ...      19.41 
freq.     358.00  E(vib)   ...      19.37 
freq.     368.82  E(vib)   ...      19.35 
freq.     389.64  E(vib)   ...      19.32 
freq.     396.31  E(vib)   ...      19.31 
freq.     444.80  E(vib)   ...      19.24 
freq.     452.86  E(vib)   ...      19.23 
freq.     466.10  E(vib)   ...      19.21 
freq.     476.37  E(vib)   ...      19.20 
freq.     497.40  E(vib)   ...      19.17 
freq.     502.06  E(vib)   ...      19.16 
freq.     508.51  E(vib)   ...      19.15 
freq.     512.35  E(vib)   ...      19.15 
freq.     541.81  E(vib)   ...      19.11 
freq.     570.03  E(vib)   ...      19.07 
freq.     584.55  E(vib)   ...      19.05 
freq.     587.62  E(vib)   ...      19.04 
freq.     641.85  E(vib)   ...      18.97 
freq.     654.26  E(vib)   ...      18.95 
freq.     681.97  E(vib)   ...      18.91 
freq.     683.85  E(vib)   ...      18.91 
freq.     688.66  E(vib)   ...      18.90 
freq.     697.11  E(vib)   ...      18.89 
freq.     744.88  E(vib)   ...      18.83 
freq.     770.81  E(vib)   ...      18.79 
freq.     793.37  E(vib)   ...      18.76 
freq.     802.37  E(vib)   ...      18.75 
freq.     838.15  E(vib)   ...      18.70 
freq.     839.13  E(vib)   ...      18.70 
freq.     841.53  E(vib)   ...      18.69 
freq.     855.39  E(vib)   ...      18.67 
freq.     871.64  E(vib)   ...      18.65 
freq.     879.04  E(vib)   ...      18.64 
freq.     886.39  E(vib)   ...      18.63 
freq.     913.15  E(vib)   ...      18.60 
freq.     951.02  E(vib)   ...      18.54 
freq.     982.34  E(vib)   ...      18.50 
freq.     991.05  E(vib)   ...      18.49 
freq.     998.25  E(vib)   ...      18.48 
freq.    1002.06  E(vib)   ...      18.47 
freq.    1004.65  E(vib)   ...      18.47 
freq.    1015.72  E(vib)   ...      18.46 
freq.    1055.22  E(vib)   ...      18.40 
freq.    1142.77  E(vib)   ...      18.28 
freq.    1158.91  E(vib)   ...      18.26 
freq.    1168.21  E(vib)   ...      18.25 
freq.    1173.52  E(vib)   ...      18.24 
freq.    1192.59  E(vib)   ...      18.22 
freq.    1214.40  E(vib)   ...      18.19 
freq.    1222.42  E(vib)   ...      18.18 
freq.    1252.34  E(vib)   ...      18.14 
freq.    1253.75  E(vib)   ...      18.13 
freq.    1256.77  E(vib)   ...      18.13 
freq.    1295.83  E(vib)   ...      18.08 
freq.    1306.92  E(vib)   ...      18.06 
freq.    1344.41  E(vib)   ...      18.01 
freq.    1365.53  E(vib)   ...      17.98 
freq.    1376.86  E(vib)   ...      17.97 
freq.    1396.34  E(vib)   ...      17.94 
freq.    1410.88  E(vib)   ...      17.92 
freq.    1440.03  E(vib)   ...      17.88 
freq.    1450.29  E(vib)   ...      17.87 
freq.    1466.71  E(vib)   ...      17.85 
freq.    1472.28  E(vib)   ...      17.84 
freq.    1479.16  E(vib)   ...      17.83 
freq.    1514.53  E(vib)   ...      17.79 
freq.    1534.51  E(vib)   ...      17.76 
freq.    1553.56  E(vib)   ...      17.73 
freq.    1582.15  E(vib)   ...      17.70 
freq.    1590.46  E(vib)   ...      17.69 
freq.    1604.23  E(vib)   ...      17.67 
freq.    1662.09  E(vib)   ...      17.59 
freq.    1679.67  E(vib)   ...      17.57 
freq.    1692.21  E(vib)   ...      17.55 
freq.    1695.10  E(vib)   ...      17.55 
freq.    2124.58  E(vib)   ...      16.99 
freq.    3203.81  E(vib)   ...      15.64 
freq.    3204.78  E(vib)   ...      15.64 
freq.    3209.96  E(vib)   ...      15.64 
freq.    3211.92  E(vib)   ...      15.63 
freq.    3220.22  E(vib)   ...      15.62 
freq.    3221.30  E(vib)   ...      15.62 
freq.    3224.91  E(vib)   ...      15.62 
freq.    3230.26  E(vib)   ...      15.61 
freq.    3238.56  E(vib)   ...      15.60 

------------
INNER ENERGY
------------

The inner energy is: U= E(el) + E(ZPE) + E(vib) + E(rot) + E(trans)
    E(el)   - is the total energy from the electronic structure calculation
              = E(kin-el) + E(nuc-el) + E(el-el) + E(nuc-nuc)
    E(ZPE)  - the the zero temperature vibrational energy from the frequency calculation
    E(vib)  - the the finite temperature correction to E(ZPE) due to population
              of excited vibrational states
    E(rot)  - is the rotational thermal energy
    E(trans)- is the translational thermal energy

Summary of contributions to the inner energy U:
Electronic energy                ...   -919.83351198 Eh
Zero point energy                ...      0.24543042 Eh     154.01 kcal/mol
Thermal vibrational correction   ...      2.70987644 Eh    1700.47 kcal/mol
Thermal rotational correction    ...      0.04750198 Eh      29.81 kcal/mol
Thermal translational correction ...      0.04750198 Eh      29.81 kcal/mol
-----------------------------------------------------------------------
Total thermal energy                   -916.78320116 Eh


Summary of corrections to the electronic energy:
(perhaps to be used in another calculation)
Total thermal correction                  2.80488040 Eh    1760.09 kcal/mol
Non-thermal (ZPE) correction              0.24543042 Eh     154.01 kcal/mol
-----------------------------------------------------------------------
Total correction                          3.05031081 Eh    1914.09 kcal/mol


--------
ENTHALPY
--------

The enthalpy is H = U + kB*T
                kB is Boltzmann's constant
Total free energy                 ...   -916.78320116 Eh 
Thermal Enthalpy correction       ...      0.03166893 Eh      19.87 kcal/mol
-----------------------------------------------------------------------
Total Enthalpy                    ...   -916.75153224 Eh


Note: Rotational entropy computed according to Herzberg 
Infrared and Raman Spectra, Chapter V,1, Van Nostrand Reinhold, 1945 
Point Group:  Cs, Symmetry Number:   1  
Rotational constants in cm-1:     0.011734     0.011305     0.005758 

Vibrational entropy computed according to the QRRHO of S. Grimme
Chem.Eur.J. 2012 18 9955


-------
ENTROPY
-------

The entropy contributions are T*S = T*(S(el)+S(vib)+S(rot)+S(trans))
     S(el)   - electronic entropy
     S(vib)  - vibrational entropy
     S(rot)  - rotational entropy
     S(trans)- translational entropy
The entropies will be listed as multiplied by the temperature to get
units of energy

Electronic entropy                ...      0.02195057 Eh     13.77 kcal/mol
Vibrational entropy               ...      8.84878481 Eh   5552.68 kcal/mol
Rotational entropy                ...      0.70887793 Eh    444.83 kcal/mol
Translational entropy             ...      0.96281089 Eh    604.17 kcal/mol
-----------------------------------------------------------------------
Final entropy term                ...     10.54242421 Eh   6615.46 kcal/mol

In case the symmetry of your molecule has not been determined correctly
or in case you have a reason to use a different symmetry number we print 
out the resulting rotational entropy values for sn=1,12 :
 --------------------------------------------------------
|  sn= 1 | S(rot)=       0.70887793 Eh    444.83 kcal/mol|
|  sn= 2 | S(rot)=       0.68692736 Eh    431.05 kcal/mol|
|  sn= 3 | S(rot)=       0.67408709 Eh    423.00 kcal/mol|
|  sn= 4 | S(rot)=       0.66497678 Eh    417.28 kcal/mol|
|  sn= 5 | S(rot)=       0.65791028 Eh    412.84 kcal/mol|
|  sn= 6 | S(rot)=       0.65213652 Eh    409.22 kcal/mol|
|  sn= 7 | S(rot)=       0.64725488 Eh    406.16 kcal/mol|
|  sn= 8 | S(rot)=       0.64302621 Eh    403.50 kcal/mol|
|  sn= 9 | S(rot)=       0.63929626 Eh    401.16 kcal/mol|
|  sn=10 | S(rot)=       0.63595970 Eh    399.07 kcal/mol|
|  sn=11 | S(rot)=       0.63294142 Eh    397.18 kcal/mol|
|  sn=12 | S(rot)=       0.63018595 Eh    395.45 kcal/mol|
 --------------------------------------------------------


-------------------
GIBBS FREE ENERGY
-------------------

The Gibbs free energy is G = H - T*S

Total enthalpy                    ...   -916.75153224 Eh 
Total entropy correction          ...    -10.54242421 Eh  -6615.46 kcal/mol
-----------------------------------------------------------------------
Final Gibbs free energy         ...   -927.29395644 Eh

For completeness - the Gibbs free energy minus the electronic energy
G-E(el)                           ...     -7.46044447 Eh  -4681.49 kcal/mol


Timings for individual modules:

Sum of individual times         ...    16356.551 sec (= 272.609 min)
GTO integral calculation        ...       18.652 sec (=   0.311 min)   0.1 %
SCF iterations                  ...     2243.863 sec (=  37.398 min)  13.7 %
SCF Gradient evaluation         ...      452.897 sec (=   7.548 min)   2.8 %
Geometry relaxation             ...        5.030 sec (=   0.084 min)   0.0 %
Analytical frequency calculation...    13636.109 sec (= 227.268 min)  83.4 %
                             ****ORCA TERMINATED NORMALLY****
TOTAL RUN TIME: 0 days 4 hours 32 minutes 53 seconds 300 msec
